216
energy=-1962.8969279311927 config_type=Liquid_Interface dft_virial = "0.24668472765476038 0.06183440825462502 0.03106115390023712 0.06183440825462502 0.0741634486035546 -0.07086733393127045 0.03106115390023712 -0.07086733393127045 0.1466153777349128" Lattice="12.19300000 0.00000000 0.00000000 0.00000000 12.19300000 0.00000000 0.00000000 0.00000000 12.19300000" Properties=species:S:1:pos:R:3:Z:I:1:force:R:3
C 1.31699995 10.63500004 0.23999994 6 -1.6875046465805734 4.32438304429239 -6.186487107149275
C 11.12999999 8.27700004 1.59900002 6 -2.1534063434333706 0.7013033440004578 -1.85138442199108
C 11.48000006 3.07799994 10.52100000 6 2.3117046439678175 -0.5753640207696629 6.0310877998771835
C 11.02699999 10.63100001 4.33800006 6 6.130418818619593 2.165878648666411 1.5200136008687966
C 10.72799995 4.34199997 5.03799994 6 -1.8170670685399999 3.5123789914583106 0.9569352018916504
C 6.21299997 4.07699999 0.21500002 6 -5.219114603810133 -2.76808805675113 -3.3592394280916285
C 3.21299999 3.75300004 4.17099997 6 0.819693044898206 -1.3144123907586498 6.232050723623451
C 6.50999999 3.99799996 6.02200004 6 -1.8168613567598078 3.03037057649593 -1.551233963469086
C 0.35699994 9.97500002 7.19600000 6 -4.109291321203084 -1.6024695680026064 6.446425026879336
C 0.43899994 9.41100001 8.49399996 6 4.641397240275073 -1.9352592861287639 -2.2971726495356037
C 4.40799995 1.73700003 2.82699997 6 3.038321336800351 -0.34673131974921984 -1.0063759711429958
C 6.18699998 6.50799997 8.52300003 6 -1.846797049292798 -5.032972699547248 -1.7004814599545355
C 7.09900005 2.96299996 1.84299999 6 5.987184277469156 -0.7631567620685883 5.4622690136737795
C 2.44200002 11.37700006 11.90900003 6 1.914902562640414 -5.725653634280958 5.768579511453623
C 2.13300001 1.75100003 2.30600003 6 -1.5739327155749216 -1.028778498285355 -0.3379607980007339
C 8.88699998 8.22499994 0.72300003 6 9.228811080912712 2.6151434052961804 -0.24300732594080957
C 5.99000000 5.54200004 3.82600001 6 -0.09782057999635031 -0.8032114170692232 2.302376643295011
C 0.51000003 4.79899995 6.40200000 6 -3.237616452288712 -0.1434993950674344 2.7427891077436675
C 5.11400001 5.70600003 2.72500004 6 13.143458944257027 6.601171199249318 0.04133109659672616
C 5.10200002 6.83000003 0.37099995 6 3.176055144948454 1.3903524372548781 4.720275879551345
C 1.70400004 3.25599994 11.11300003 6 5.8055896321074165 -0.6576204474766866 4.8335628997414295
C 7.07199999 8.86799999 10.64099997 6 7.8231259161212225 0.39993044322467297 4.382911131433716
C 10.85500005 3.67699997 9.46700002 6 -1.400842709485769 5.100165881149713 -2.2324876088131305
C 0.23400001 0.28399997 9.24599994 6 6.5518661997729 2.100645386049726 -2.9217485852011484
C 11.03699996 1.33999997 6.79900006 6 -4.670909680820318 1.9606559482318175 -1.5656826446303216
C 12.01099997 8.25499997 9.09500000 6 3.476476628740851 1.0081867490881358 1.632885597542345
C 9.63300003 1.48499998 6.07699998 6 4.61487584901382 -2.8392082762374597 6.40587563504734
C 3.11600004 0.58900006 10.22600000 6 2.226633051548866 1.7211997218965727 -4.57362600857027
C 0.95300000 11.24999996 5.45100002 6 -1.2508654504600885 -2.8667623406352774 4.077058342364801
C 0.85600005 4.16100001 5.17599995 6 1.4684889712841065 -2.4436517797391195 -3.2736700131646126
C 7.33199999 2.58399994 8.44100003 6 8.558424160357308 -1.3152660946464465 2.659128183857383
C 0.83500005 9.91400003 1.20500005 6 -4.097233010927681 -5.650568320231428 -1.04071955284605
C 12.16200003 2.69099998 2.24100000 6 -0.26551630892941824 -2.134108521333559 -3.192458602300964
C 5.26600002 7.35099997 6.46399995 6 -3.19064319584077 -4.2282853004551475 4.163709286976176
C 9.07600001 1.75499994 10.16900004 6 -6.095878267887006 -2.492773695731167 1.6826663055104574
C 5.06400005 1.90600001 8.57900004 6 1.9187946295216467 -5.78774413517576 4.072631939134519
C 8.67399997 9.47900000 4.08399999 6 -2.749744223031959 6.153038371690055 -2.0697207341334627
C 2.45199999 2.66999997 1.08999994 6 2.5636131186375346 -4.090114869053587 3.0189474013418685
C 2.81499998 0.26799995 4.08399999 6 -3.1992260055898307 -5.270103354207422 4.132786177898264
C 5.39599996 10.73899999 7.85699996 6 1.891765130163319 -1.0891970766866463 3.113643733676553
C 4.49600000 3.95500000 4.92200001 6 0.20800032374663602 1.0837580572183698 0.9004590897577387
C 7.79000004 6.59300006 2.81900002 6 8.462868981340325 5.921023769003256 0.0775816265021604
C 10.56099999 0.50300002 7.84999996 6 -3.1810976549604106 0.7071784724427412 -5.64984112908845
C 5.20300001 9.51300006 2.96600005 6 -2.3693867414131042 0.8610287700099866 -0.00652054915263592
C 5.08399999 9.59300004 9.70600001 6 -4.0328976802315335 -4.827118978226916 6.923259276290437
C 9.46299998 8.77600003 11.58199999 6 1.9384056478068006 2.0086798775970904 7.909623091176904
C 7.17900003 0.18900004 5.96299994 6 1.1126687908065536 -0.43751192834794944 3.3759411675254167
C 3.17300000 1.06300001 3.12699995 6 -1.3989553039025073 7.051089605060646 -8.716574348410019
C 1.52600004 2.85600004 0.18200003 6 -6.098382294531392 -0.08692814123518393 2.300413638632529
C 10.13099995 4.89699997 1.04100005 6 -1.3382158151241166 -3.305169629506512 -4.771423542298833
C 3.00600004 10.07500006 8.14200000 6 1.3763306080375408 -1.3985428517832226 3.4221100909128084
C 10.34500002 6.26699996 11.22599999 6 -0.5699908290710479 -0.6081328787953476 -5.193153262870452
C 9.86200005 10.40699996 3.71699996 6 -1.102470629303535 -0.8279292302976433 -1.2437632512489598
C 3.89800004 8.98299998 3.32200004 6 3.1662915495810915 3.784535676652326 -8.355650972945352
C 9.83099996 11.34799998 2.53300003 6 -2.3132392538480495 -3.639746468723088 4.673401879037344
C 1.55200003 11.79400005 4.36299997 6 -1.801797083096348 0.4301731605895998 -2.5002034909522517
C 0.37400003 7.27500003 4.63699997 6 -4.05641207954583 0.9361788832702775 -1.902746024989968
C 11.30799999 6.47900002 7.43900002 6 -3.5665351889911068 -2.0652259317362676 5.183586636532623
C 10.19599998 6.73999996 3.80700003 6 -3.401473599403397 0.017943210027247202 1.4970134810049796
C 3.32900004 8.27700004 10.78500003 6 -5.00582440163586 -0.6009607375789535 -2.3238894669880397
C 5.53300002 7.87999998 11.72799995 6 -2.1691448374564097 1.790852702110683 0.1342161367068199
C 3.98500003 5.32299998 2.46000006 6 -11.21415295704702 -4.07324341740114 -3.366911448933889
C 4.34100002 5.38000006 9.52599999 6 -4.200024101812921 0.29268929225443 -3.742182706787496
C 3.81900001 11.12500001 0.13700006 6 -6.510677558583955 1.355883885645357 2.1528930925417913
C 0.07799996 11.04300001 11.11599999 6 8.508492254230756 3.443215605281057 3.1803992634666587
C 11.40699996 3.32000002 3.10400005 6 -0.8194209910689022 2.5262856875627953 4.583842169854054
C 2.82899999 6.70100004 7.17200003 6 -2.3063823659347995 2.0255163582469047 -4.544884472921294
C 1.34800004 10.57500000 6.55400002 6 7.478186860256926 2.8641019730379442 0.06721735273663697
C 8.96800003 1.47200005 11.53799997 6 1.0217760692876192 -0.1107269370855964 -2.4544130772404134
C 6.88800006 10.38299999 8.74399999 6 -2.538275598671286 2.4279899133542013 -4.922590329693474
C 8.03299994 10.95900000 8.33499995 6 2.970185995244607 1.438899388821289 -2.4150634993663864
C 9.91499998 6.73200001 9.66800004 6 3.5458112699751143 -0.9548513415583055 3.047677622842934
C 8.00699995 0.77799997 0.12199999 6 5.836748795453099 2.365038508659296 -1.1822754858701205
C 8.72000002 0.56400002 1.28099999 6 0.8896504785470005 0.8170733053774609 2.224071425606025
C 6.62699999 5.76000002 9.69499997 6 -1.4621088204214514 -1.3058794661162856 0.9651384734062568
C 9.46999998 3.61199994 8.85699996 6 1.1675670935863924 -3.5431102743011933 2.3090597047539982
C 7.83799998 4.31300002 5.90500003 6 0.33603379289978536 4.2240383807530835 -5.150670694584101
C 8.69900001 6.28599995 9.31500001 6 4.882412247624724 -0.8185703728578083 -1.889627784767124
C 6.21999997 8.68500001 5.01399997 6 -2.0976466225739774 0.8448238245253619 4.088470203370952
C 9.96100002 3.44099994 2.85499997 6 -2.724613957684254 -3.7110682857540054 1.0528154055213397
C 10.26000006 9.19899995 6.86000005 6 5.712847047405105 5.593511072318474 1.904670458693664
C 1.65700005 8.98400005 1.95000003 6 0.19923237339540248 1.194630535388452 -1.0283398179140955
C 0.36000003 11.66100002 3.64199996 6 -1.7261805183744716 -0.7358922370013911 -3.2968511593949987
C 11.25499995 10.26000006 6.70600003 6 1.0398643061199018 -1.2442312455488964 0.020247181965397598
C 7.38700005 10.08899994 3.42199996 6 4.1864080390820115 -1.9886214361900192 -0.41985980048967386
C 1.75100003 6.21000000 7.93699994 6 -0.4916136122589949 0.9505601938235003 -2.067668244846597
C 5.08800002 11.53400005 6.78300004 6 -2.5099897146154357 -3.048161045526385 0.06087422999441664
C 11.94799995 2.30699998 6.71500005 6 5.742320916991565 1.4194570541958926 2.5337211398578354
C 7.67399998 7.91000001 0.72300003 6 -6.269708322105399 -2.5936161817785375 1.8701936786129352
C 11.76900001 10.77100003 5.53500004 6 -4.951938200814565 0.5896949319367386 -5.476210615296842
C 10.06699999 8.49500003 8.03299994 6 -5.504197188712513 -4.746280419964866 5.797908354235047
C 12.06699998 0.27400000 2.67699997 6 1.1107458999412088 2.1452766138801826 -0.20341192248945345
C 3.74100005 10.33699995 1.36399994 6 2.6492262473178414 1.4186434641052332 -3.6475115741458852
C 3.28399995 4.36400004 3.10299998 6 -1.35937995734972 2.9953111177978076 -4.995730124581838
C 8.73100005 7.32900002 7.33300006 6 2.7580878928365467 2.2210474624372027 -0.8161892590020858
C 4.52899999 0.44000001 10.54100006 6 -1.118508433966754 0.43777575370604566 1.4728207470954993
C 2.15999995 7.26100002 5.90199995 6 1.1183104363783192 -0.180820654788768 2.2975465306961027
C 0.20300004 5.20399996 0.32799999 6 -3.813442296004906 1.479212212106065 -0.19898860493587497
C 1.10200005 1.71800004 6.88299995 6 0.8885653489064878 1.4090351811319155 1.1335367080686805
C 7.91700001 5.64700006 10.24400004 6 -4.499233428940535 0.5039738045718313 -0.3724771775991496
C 7.38300001 10.97500002 2.27800002 6 -1.807035533578937 -1.718575353860773 1.0994410090607574
C 11.57200002 9.24000001 0.61699994 6 0.28160245586098215 0.9647347640376301 3.378725476470316
C 11.14800003 0.03900004 8.92899999 6 -1.917772756253543 -3.5830775017952465 3.703187981734301
C 5.70299994 4.88000000 4.98099998 6 -4.063507593124103 -6.636527397190367 0.7273490267700173
C 4.00999994 3.55600005 11.61200001 6 1.5535297069360288 -1.9191906246985162 2.078697481941591
C 3.77400004 2.66000001 0.53699996 6 0.7365438290651493 1.5551301445859225 3.652736139083312
C 0.63299996 1.53699995 2.50700005 6 4.675055287470638 -2.8095101808105913 0.2510845989900485
C 10.60399995 9.81499994 11.90999998 6 -0.6226653875070114 -5.767174499994912 -0.43250644645642755
C 5.55900000 0.88299999 9.65600005 6 -3.391843716693159 1.4480345347001653 2.2772705490814786
C 6.82300003 8.33499995 11.95600003 6 -4.277051335067463 0.5112616586645834 -4.658046523204913
C 5.81299995 12.11700006 5.79700005 6 1.8986976171557892 5.569961187722094 -0.7258252167582451
C 11.88699996 3.74400002 4.44699999 6 -1.8360599229256767 1.5053468652205575 -2.076111684864578
C 3.86699995 8.21299996 4.34800002 6 -2.0549907421128144 -3.888238070723816 6.639082337500351
C 11.65400002 6.12300002 11.50999996 6 5.781205071962907 0.48910547137900395 1.1262267399595578
C 8.21299996 5.20300001 11.57700001 6 4.081435889047286 0.9883633333899335 -4.139605523411628
C 8.34599998 3.54399994 8.00600001 6 1.9403501384090653 -0.3529376441576125 3.139681187974905
C 12.03500006 3.82199998 7.34800001 6 -2.003328285635396 0.27504590714681265 -3.68704114982758
C 6.13000002 2.56699997 8.07300005 6 -8.718329069895056 2.2516018331491208 -6.170167477347193
C 1.73500001 6.72299999 11.92800002 6 -2.2106770173182735 2.4359432450558747 -7.176686418177422
C 8.51999994 4.52899999 7.04500005 6 -5.3348110232257175 -2.306368480389637 0.7610816444859014
C 1.51799997 7.33100004 3.79800001 6 -2.2508360710473556 1.5996014315072795 -0.31870977533091605
C 2.61899995 7.51299995 4.52600002 6 3.5886008630934016 -0.01882674212317184 4.4280576672735545
C 5.95900003 12.05900003 0.35300003 6 4.678330733290745 -1.949437456299047 0.20989132928605095
C 7.65000001 2.43900005 3.15800005 6 -1.4246533337635425 -1.4794168953273559 -0.1512115297068325
C 1.96499998 9.32100006 8.77999994 6 -0.7576071725184587 0.5451074178595731 1.2281342987488726
C 2.18999997 12.01500000 10.83400004 6 -2.1625296608848856 3.8795596049969663 -4.066371101104376
C 4.20700005 6.60800001 7.18299994 6 1.2359811746042966 0.0639840778314692 0.08340995551445024
C 11.69800005 4.40499998 8.65999997 6 5.742495772004728 -2.9516282212740363 -1.0639845266268644
C 4.36299997 10.06800006 8.71000005 6 -0.47888416730071404 3.291382311718594 -6.17233876518712
C 9.72400005 7.97000005 1.91099999 6 0.37778505580755367 3.1326180740020124 -7.0095337683440615
C 0.73599996 7.27899994 5.96600003 6 3.014165631011305 -1.8611973881856887 1.638479415125216
C 3.81299996 6.70600003 0.54399996 6 -5.054202155263063 1.5271631137893695 -3.6938934092257756
C 8.53900005 11.67200006 2.13100000 6 1.0702746785856851 1.0745246839644518 -2.2285950276524473
C 4.44999996 3.22900001 6.06099996 6 0.38476897074507205 -4.864333267822549 6.611538044412095
C 5.06700002 10.38500001 1.70900002 6 3.2550124689806488 -3.399150599125579 7.371702728637789
C 7.14999995 7.12500003 1.80599997 6 -4.248648195296903 -0.9635040933126314 -1.8856801757052397
C 6.21600006 11.12500001 1.43900006 6 -0.9486835881086988 1.3334582159277262 0.08785487280494887
C 8.87999998 5.78100003 7.50200003 6 4.210075179393101 4.789034013521619 2.005362775141495
C 9.24099996 7.36900001 2.98300001 6 -4.2763781432667844 -4.988990492383298 0.5451408460238543
C 0.72500005 3.42199996 10.35299997 6 -6.369421964758966 0.9734955144765569 -6.055079964800976
C 10.73800004 0.11099995 2.22200001 6 1.8355837001545323 4.1515110926902405 -1.9137696050110065
C 11.03899998 10.67800000 10.91900001 6 -1.665620513124298 -0.7110216827761783 -0.5944653881193911
C 8.78500005 2.00400002 5.21599994 6 4.366180078071251 2.8024933519882422 -5.263429035499093
C 9.01099998 2.54300000 3.66400004 6 -1.8490794214940285 2.219077257862414 0.513928197615322
C 1.80700004 5.37199999 8.96699996 6 2.1787906628296128 -6.538668246235232 6.529038877804443
C 2.21200005 8.41899996 9.86599997 6 -3.2714478116590886 2.0471310092711286 -0.8956114916575142
C 6.52899998 6.95400004 7.20500001 6 -1.8107671452716196 5.23642525011329 1.715170309619145
C 5.41800003 5.05599998 10.20900003 6 2.9393873417937115 -1.5465180209081844 3.7913092512945985
C 10.13600005 1.76800000 0.02800001 6 -1.5363496876132938 -2.84099745444568 4.931867416700682
C 4.57500003 8.72700002 10.80699999 6 4.330156345403479 -0.9107966209918372 -0.42853672337817245
C 9.35900003 3.78800004 1.52800006 6 6.606214223540724 2.86808301026411 5.831386917902393
C 4.80000002 12.07300003 11.98000000 6 -5.940254220495055 -1.532487448940189 -5.488334239062458
C 7.66400001 1.34100004 5.33999995 6 -8.443369047416473 -2.277509174746501 -4.877226767925533
C 11.28200001 7.60199995 3.82400000 6 7.715397228231925 -5.0577969686219175 0.3175670463919495
C 0.58399995 6.76599995 10.99199999 6 2.556803544433729 4.348068698663696 -0.32109911765784616
C 11.98900001 2.89299995 0.86499995 6 1.8315682062051846 3.497364602901547 -3.8098654824268174
C 6.86000005 0.78699999 10.23300000 6 -1.8834353459038942 1.3612133635906811 -0.8344950360419214
C 4.86300003 5.95400004 8.20799997 6 -1.089690784959107 0.9601119060572653 5.4240657646948724
C 8.27399995 8.92699997 5.32799996 6 17.301245274802028 3.010779615109345 -6.786179117323894
C 5.92600004 2.99400005 1.14200004 6 4.075381277076786 2.1096303623290624 2.137376252961909
C 3.78400001 12.16999998 4.97800002 6 1.278154660940909 2.5621397080119097 3.026310854513841
C 9.69100006 8.52800002 5.95999997 6 -6.94656590670674 -4.1669075908787105 -3.0409822186771343
C 0.46699995 6.26300005 7.10900001 6 2.159680552729226 -0.4259010411944625 -3.7778248441030127
C 0.89499997 4.26999994 9.27099998 6 -3.660791812395631 3.6237780917856837 -2.029730364064138
C 11.41800000 4.40299996 0.91399996 6 5.383150205894134 0.6596564798211368 -0.6622330198680416
C 4.83000004 2.46300002 1.65599998 6 -7.387814589541877 -1.405238770228472 -4.070868474898823
C 9.15500005 9.13499999 9.26300003 6 2.972349054613326 0.18288600106189568 -1.7705926631590232
C 9.65999997 5.58299997 4.41199998 6 0.47626597061832027 -2.7148904761140287 2.8037224798748897
C 7.48899998 4.48499996 0.21000004 6 0.08205122920628208 -1.3611012506704765 2.7494366839205724
C 2.91300000 7.38300001 11.69999994 6 1.1059749294791057 -4.555742454959278 5.898447415406634
C 5.84700001 6.59600002 1.75300005 6 -2.6172426940130396 -0.5098221904826898 -4.584141994773685
C 1.11900002 7.74199997 2.47599995 6 3.5628303198298483 -1.5081430025928173 -0.8260176535802092
C 10.44300004 11.08599997 9.69800006 6 2.5322497863500115 4.71076839535032 -0.481609848388258
C 2.21900005 3.44200001 5.06500000 6 -5.905991894945176 -0.18308657004758286 1.6540461398117952
C 11.12200004 2.50199994 11.91299995 6 5.147010053455585 2.599176056917677 -2.9794713107230235
C 9.20099997 0.51000003 7.13400005 6 0.35904162695535957 -1.484057238809037 -0.2740826617360636
C 10.25400001 5.45500006 7.13799997 6 3.36082700875526 7.913144876853792 2.3573037457240766
C 8.18899999 5.44800005 4.75599999 6 4.78326019813108 -3.659050462176305 2.4669959525553073
C 5.64899995 3.29400004 6.93500005 6 1.6318112677702925 2.462902802408937 -4.323105574137398
C 6.31000004 9.36400001 3.84999998 6 -2.155749400609757 1.9612437696437164 -3.6435238512868637
C 1.34600002 0.81299998 8.17799995 6 0.5283629932313948 3.8520471972346377 1.6493250544563887
C 2.95400006 3.90800001 10.86900005 6 -2.9627772854809926 1.4534360117685567 -2.5016434734135955
C 7.50299998 8.00300004 7.16200006 6 -1.4326863787800401 -5.4519057684671575 -0.3146649674528909
C 8.54999997 8.88600003 10.64599996 6 -1.817322151147438 0.7279450766531236 -7.252320468400614
C 5.45100002 1.59900002 3.74100005 6 -2.904630279412471 -3.2473620478753085 6.120390369335233
C 6.40699999 9.65799995 9.76900002 6 1.4996373347613285 -0.6652070979301675 0.08596746722168727
C 4.97199997 8.27200006 5.53700005 6 -0.09029050028242215 -0.2097483595988175 -6.1955939676583744
C 2.96900001 4.99400004 9.96199997 6 2.1451310727956967 1.1727268593130582 -4.653097612052944
C 5.24799998 4.14200002 11.36800004 6 2.2661564558771548 2.959835607024247 -0.5622318950016562
C 3.45600001 2.20000006 6.64399996 6 3.361508429027146 3.1314156886467903 1.4220382227578519
C 2.64300004 1.20399998 8.91299997 6 2.433429447101928 -2.440524960680201 -2.6649313131765995
C 4.89899999 1.00499998 5.04600001 6 1.139378922626133 -7.284802358492932 -1.048772140481666
C 8.03499996 11.88100003 7.11300005 6 2.088773759214846 1.1004536252987525 0.7883965689392457
C 7.30300003 8.65999997 5.98900005 6 -8.211214046439693 0.12503059144179662 0.3630468353156978
C 9.47800005 10.51199998 9.02999997 6 -7.153869381797976 -0.7714572323993355 -0.983970872603384
C 7.71300002 1.62200004 9.43699999 6 3.3306994899872406 -0.1719179632215087 3.8285888543804427
C 6.97899995 0.28199995 11.68599994 6 -1.6144759360535124 1.3252801441061932 -3.3568408287345894
C 11.93799999 7.60199995 2.42100001 6 -2.3263832080434175 1.855920881023764 3.5004137657634424
C 2.74900001 10.76000000 6.98200004 6 -1.632386232195929 -0.02452804411119312 -2.213113673354648
C 0.77999999 7.87299998 10.02900002 6 2.014244895530735 -3.0246718459051616 2.8896832614637202
C 3.83599998 1.64300004 8.02400004 6 -5.506698643959648 1.4797434627784105 -1.320630029314953
C 7.31599997 5.98200005 3.88400004 6 -1.6524395308084956 -1.086070257627728 0.09668916520529432
C 9.97599997 2.52800005 9.61200003 6 -2.1754565891521507 0.14538525781234454 -3.9665998591523546
C 10.10499996 1.19400001 1.44600006 6 -4.452665424699572 -3.9710910615933965 -3.0266122222718224
C 0.88799997 11.98000000 10.37699994 6 -4.183710643364243 -1.9978686949891002 0.3632371187123754
C 11.01400006 7.27599998 8.69999996 6 -3.6345980171443326 2.5640492276115414 -2.3737869163914116
C 2.19499995 2.49499994 6.13400006 6 0.21357614154874016 -3.253809569345976 2.450708722358606
C 1.77700002 6.23500004 1.88700002 6 0.45914149347623723 1.7835026202044226 5.437860282395098
C 3.73999998 11.45399995 6.22899999 6 -0.3777084281694321 -0.8433946419324779 1.0510236559158674
C 6.74300005 1.66599994 4.08600001 6 6.390721876759496 3.71149050918285 -1.969328242605262
C 1.52999995 5.77099994 0.67800006 6 -4.4747670983634 -4.355499522443682 -2.3627587078553183
C 8.10400002 3.81900001 1.33099995 6 -7.30225443164497 -1.0927718331469327 -2.2164883751086975
C 10.98099995 4.58900003 6.39099997 6 0.5996056112269387 -2.6702073060590736 -3.0420904908929187
C 3.08300005 5.87599996 1.41999995 6 3.6771176135511183 1.6391068360548018 1.844542448181894
C 9.63600000 5.22600003 11.79400005 6 -2.39765616852654 2.984161539311401 4.3859762369585775
C 2.99700002 9.33300004 1.98500004 6 0.6946213111003711 -0.8910045763401143 4.796911231864621
216
energy=-1982.418791859324 config_type=Liquid_Interface dft_virial = "0.3467217465494378 0.06424421051306642 0.05654062968460654 0.06424421051306642 0.11614763690038561 -0.13883813309036708 0.05654062968460654 -0.13883813309036708 0.2483475857017733" Lattice="12.19300000 0.00000000 0.00000000 0.00000000 12.19300000 0.00000000 0.00000000 0.00000000 12.19300000" Properties=species:S:1:pos:R:3:Z:I:1:force:R:3
C 1.33400004 10.62800004 12.01099997 6 0.5919253619134704 2.0970027447019763 -2.904542337626439
C 11.51199998 8.31099998 1.59499998 6 -1.8347001680586075 2.8032781424296744 2.137389624227621
C 11.46600006 2.47000002 10.70399998 6 1.1976591270723287 4.27398468670425 -1.1085674121889755
C 11.11300003 10.69100005 3.90500005 6 -3.502699737920826 1.861223616437663 6.3080673977578
C 10.90400006 6.13500001 5.58299997 6 7.330490430594124 -1.2292106856387273 3.724368066622869
C 5.94000004 3.92499998 0.58700004 6 4.742384238848029 3.2647745215096595 -3.414238015364311
C 2.57000006 4.11999995 4.02399995 6 -1.5885331091740489 0.8747980880171382 2.882901458350241
C 7.08899996 4.39200005 5.82100002 6 -6.323662407814156 -3.574083782765252 -0.7216338392368331
C 0.37900002 9.32800006 7.28400005 6 2.770031004515044 -2.3827657213173414 5.597163484975782
C 0.76500004 8.38799999 8.27700004 6 1.0900847230181747 2.755035130018497 -3.50265088137303
C 3.97100002 1.51500000 3.07000000 6 6.779378285870746 1.1380669957479588 -0.8988247096641133
C 5.56199997 6.16899994 7.97500004 6 3.2476490158086757 0.6235566337946933 4.699285563780003
C 7.18800005 2.83899995 2.03999998 6 -2.4637127925434434 -0.04600075400708455 3.1949461720029357
C 2.40599994 11.49000003 11.70100001 6 2.463047314934522 -1.440212858537815 0.13640079581245895
C 2.18799995 0.86800004 2.03499999 6 -5.5033383420302115 5.611929990837415 -2.830116329832424
C 9.21600004 8.48899997 0.52999996 6 3.2815318031241003 0.9895945183943827 1.2867127852763465
C 6.54299998 5.72399995 3.75199997 6 2.6822599592605227 -3.8224776716703888 2.472199432035264
C 12.05200003 6.77900000 5.10900003 6 -3.687153777027235 0.5585604540046795 -1.7628856713141297
C 5.67899997 5.99700000 2.76599997 6 -0.6573298795871654 0.3120724847430212 -2.167358744924893
C 5.23600000 7.13299998 0.67999995 6 -1.7204344740742583 -1.920763291258084 1.0920621275052704
C 1.56100005 3.25700001 11.38000002 6 -4.782754661431258 -5.1142401668709985 0.8783193594145746
C 7.44100004 9.32699999 10.77600002 6 1.0274665714071805 1.3044564548768074 1.2058870840005584
C 10.50400003 3.68100000 8.74500006 6 2.3104976300975406 -1.3267108695374286 4.047660586137012
C 0.44099996 0.28199995 8.85600001 6 -2.429455095508619 0.4553234828358737 -1.5664093214938497
C 10.94999998 2.20699994 5.15899998 6 -6.832068786969675 -5.2233214097150595 2.12399521593987
C 12.11599999 7.78300003 9.19399997 6 12.763942823819157 1.8689928360960646 1.5973494017936276
C 9.87999997 1.33900002 5.68899994 6 -1.908987320400993 -1.2650441349098223 -3.8847090851346224
C 3.36700002 0.37400003 9.57999999 6 -4.638486418585356 -0.21834865484919452 2.7883789524698184
C 0.50899996 10.87700000 5.76200004 6 1.7523521996093987 2.8750792679084403 -4.035530276738541
C 0.60800004 2.99500000 4.80200004 6 -0.4638630931110942 1.7815720151473209 -0.15996508023345257
C 7.32700000 3.04800004 8.76200002 6 -3.9769589901233737 -1.318136802539026 -4.9461700424979815
C 0.82499996 10.01300000 0.93999995 6 -2.9536251683802504 -2.148139093301554 -1.6999018670138444
C 0.18000002 1.74699999 0.73000003 6 6.369300080529202 2.3033362887496063 -2.720942002407827
C 4.66700000 7.14400002 6.03699999 6 8.647562160391207 7.205650122549004 -5.0817531339841775
C 8.99499996 2.48900001 10.24400004 6 3.194064182745363 -6.431224983440949 4.09153170893966
C 5.04199998 2.07299997 8.52300003 6 5.518656669742209 -0.490325856514993 -1.4648530155692128
C 8.36200000 10.33199997 4.02300000 6 0.3971307058962598 -3.3307786890226145 5.077003763258994
C 2.56899999 2.04900000 0.99999999 6 2.9623663762000585 -6.213439464590031 5.598448669322532
C 2.29999997 12.03399999 4.33699999 6 6.5780085670791495 1.899758061382679 1.1644587885876914
C 5.51700000 10.66600001 7.98299998 6 -7.66583868898642 -1.3923684127007596 -3.6169710889791307
C 4.86899996 4.26100004 4.89600002 6 6.8413253027988645 -4.425473413034892 8.255188025132437
C 8.25200000 7.04899997 2.87300001 6 0.8858350393038893 0.6582848965267066 -1.983178302486139
C 9.92800003 0.17100000 8.03100005 6 2.149611989647729 -1.6521232489464506 3.2909678024815077
C 4.98900006 9.65600005 2.75899997 6 0.3988535420553678 5.632316542533892 -3.2771712276634806
C 5.41499994 9.17000000 9.81499994 6 -6.618955496926367 -1.5466995615542039 -0.12911911307311263
C 9.66800004 9.22800002 11.68000001 6 -1.3678254544855026 1.94208017448048 -2.70146726817705
C 7.02200003 12.13299995 5.85800004 6 2.2061955861867912 1.4063681279017262 2.3128144590219533
C 2.70700000 0.77099997 3.28300000 6 2.2910270101023675 0.6748745230402905 -1.7709917440125957
C 1.55099996 2.23300005 0.30200000 6 -8.986675458640464 5.188009954086201 -5.66784193841415
C 10.23799999 4.35099999 1.24500004 6 8.687019222670383 -0.514444534183604 3.405822346436656
C 3.29600005 9.62600003 8.12700005 6 3.0913651478817594 -2.467358005288445 3.27953897025349
C 10.76099994 5.56100002 11.67200006 6 -9.071421512167262 0.38541542001432544 -9.952462952713228
C 9.49200006 10.84299994 3.43799998 6 8.60041353465065 -2.373631089717916 4.03818653010027
C 3.71199998 9.34000004 3.02799999 6 1.368214764029516 0.6490571803467441 -7.643529246424598
C 9.70800003 10.95200000 2.15100005 6 0.13814626026738808 0.1268624548444064 2.1513389400424408
C 1.06599997 11.58899999 4.55999996 6 -2.983874057098583 -1.520302111640516 2.370488842275483
C 1.62000002 4.70299995 2.95599996 6 1.895804795246839 -1.8294812601951367 2.5596027674826916
C 10.53599995 8.13799996 7.92800004 6 -3.85422465642797 4.9905338450141885 -3.6421049542829893
C 10.26700006 7.04800002 3.70499997 6 -1.1689623337355448 -3.2310897317826703 4.945723133655514
C 3.23300004 7.87299998 10.78800000 6 4.666472992001028 -0.4754189523633797 6.292930096412373
C 5.62799995 7.93399998 11.89300001 6 -2.101779886517485 4.45037122407098 -3.99819050295699
C 4.39799998 5.41300005 3.00999995 6 -1.1312815926783255 2.7153054996305657 -0.8040229500420806
C 4.40799995 4.75899996 9.40199999 6 0.19833547003376537 -0.46938028305584356 2.495713831349561
C 3.65599996 11.24600005 0.05399999 6 -0.42799570139626747 5.819037525458018 -6.1437988270827315
C 0.63799994 10.79000002 10.74699994 6 -6.237581284833913 -6.772801680258008 8.886934559176023
C 10.93899994 2.75600001 3.79899996 6 -9.250666414719761 -2.5237801180800568 1.300101536490143
C 2.96200001 8.39299997 7.46900005 6 5.763227919491928 -2.865977550193845 -5.831779313123111
C 1.26200001 10.24799995 6.73900001 6 0.668714483782441 0.7720805390933172 0.28044018430289736
C 9.24799996 1.30699998 11.43600003 6 -3.353206415858047 2.2331844574685307 -4.635280400491064
C 6.59300006 10.83099996 8.65900002 6 4.580749293238868 -3.430508788618597 4.8671510049317295
C 7.78100002 11.26700005 8.36499997 6 6.002968542363289 4.720289250817056 -7.539062633089695
C 10.21499996 6.84499998 10.11699995 6 -4.395263095275346 -2.388087485070909 -1.199580475099322
C 8.23100000 0.31600001 11.87299996 6 -1.158216464617765 6.413882451811864 -5.281355274304475
C 8.87599994 11.96100001 0.68500006 6 2.865808352254637 4.408882757962407 -5.6574365222925875
C 6.67699995 5.63100004 10.30399996 6 -0.8953435520638141 -4.579693477527032 0.7516883303228843
C 9.43499998 3.78800004 8.02200003 6 -0.29523446125485553 3.062731096637934 -6.796298079791538
C 8.39799996 4.67600001 5.78899998 6 4.2936985608795 -1.601140669902566 3.8801078268911775
C 8.81899998 6.37499995 9.88199999 6 4.141354587822711 3.244431683566473 -2.460239349134901
C 5.98399994 8.79200005 4.71699995 6 2.478775523368552 0.5226642626406259 -0.2458764909950375
C 9.75799998 3.01300004 3.10599995 6 -3.9601389664159745 -5.204611923306597 -3.0231840354549226
C 9.27599996 9.28999997 6.29100005 6 1.4967434842934775 -0.6539222639482849 -1.371672264775093
C 1.44499999 9.32999996 1.95799998 6 9.080194091033551 2.1615206446030437 2.943061354187941
C 0.01600002 11.55899997 3.66400004 6 0.3177984721446655 1.6135954896342906 -6.436668631424281
C 10.65099994 10.04100000 6.44199999 6 -8.557547313894242 0.9417490439984264 -6.3470086377481465
C 7.23500004 10.40899998 3.31599999 6 -4.162763012787293 -5.8134005084013065 6.334319306587003
C 1.91099999 5.53599998 7.81899999 6 1.7043987265288416 -0.36944858591527285 1.5685173529613672
C 4.81299995 11.14400000 6.77299995 6 13.403461663197849 2.0951503101213476 4.035638275423142
C 12.06800005 2.36000002 5.80799996 6 6.393999379697405 -0.3161656348893915 2.5810327921841933
C 7.94799998 8.41800001 0.90300005 6 -6.96385803894968 -1.9042518352209734 -5.082755978912613
C 11.28800006 10.73199999 5.35599997 6 1.1280498606115092 -3.6961937812077723 2.645806288972149
C 9.37199996 8.04300003 7.19899996 6 -3.711617021927668 2.4019154309354147 -1.777301438590535