2
energy=-9.166845833704205 config_type=Dimer dft_virial = "5.4113047187625e-06 8.491510902875001e-08 -1.20613564445e-10 8.491510902875001e-08 0.017825824997562502 6.23097874839375e-07 -1.20613564445e-10 6.23097874839375e-07 5.40930842828125e-06" Lattice="10.00000000 0.00000000 0.00000000 0.00000000 10.00000000 0.00000000 0.00000000 0.00000000 10.00000000" Properties=species:S:1:pos:R:3:Z:I:1:force:R:3
C 0.00000000 0.00000000 0.00000000 6 -0.00015325527624303998 -15.885625773865614 -0.00110981505413584
C 0.00000000 1.12068970 0.00000000 6 0.0001491410406392 15.881307369319934 0.00111032933358632
2
energy=-6.471857170600727 config_type=Dimer dft_virial = "-2.615729540925e-06 -2.9142216684437503e-07 -6.160611677600001e-08 -2.9142216684437503e-07 -0.011654767299937502 -2.1598510528500003e-06 -6.160611677600001e-08 -2.1598510528500003e-06 -1.933479793275e-06" Lattice="10.00000000 0.00000000 0.00000000 0.00000000 10.00000000 0.00000000 0.00000000 0.00000000 10.00000000" Properties=species:S:1:pos:R:3:Z:I:1:force:R:3
C 0.00000000 0.00000000 0.00000000 6 5.3999342300399996e-05 6.685715140952076 0.0009359885998735999
C 0.00000000 1.74137930 0.00000000 6 -0.00074261952649312 -6.683554652980611 -0.004086978792964559
2
energy=-9.245519700385337 config_type=Dimer dft_virial = "6.095981763825e-06 -1.2902192817312502e-07 7.816075523375e-11 -1.2902192817312502e-07 -0.0118252076965625 -5.96389652915625e-08 7.816075523375e-11 -5.96389652915625e-08 6.0961857538e-06" Lattice="10.00000000 0.00000000 0.00000000 0.00000000 10.00000000 0.00000000 0.00000000 0.00000000 10.00000000" Properties=species:S:1:pos:R:3:Z:I:1:force:R:3
C 0.00000000 0.00000000 0.00000000 6 0.000179997807668 8.254326607052882 8.331327097776e-05
C 0.00000000 1.43103450 0.00000000 6 -0.000179997807668 -8.254719002273598 -8.279899152728e-05
2
energy=-7.783199495346964 config_type=Dimer dft_virial = "6.69615936725e-06 2.36071172629375e-06 -5.3366897062812503e-08 2.36071172629375e-06 -0.015687495056812502 2.12303350180625e-06 -5.3366897062812503e-08 2.12303350180625e-06 4.281111543768751e-06" Lattice="10.00000000 0.00000000 0.00000000 0.00000000 10.00000000 0.00000000 0.00000000 0.00000000 10.00000000" Properties=species:S:1:pos:R:3:Z:I:1:force:R:3
C 0.00000000 0.00000000 0.00000000 6 -0.0028696793336784 9.8791483028117 -0.0035043001755707195
C 0.00000000 1.58620690 0.00000000 6 0.002982820812784 -9.88008172001432 0.00269071008491136
2
energy=-10.092176874997376 config_type=Dimer dft_virial = "5.6644103972437505e-06 -8.114785130437501e-07 1.1332838099e-10 -8.114785130437501e-07 -0.0018922938751875003 -1.7184915941625e-06 1.1332838099e-10 -1.7184915941625e-06 5.66554512766875e-06" Lattice="10.00000000 0.00000000 0.00000000 0.00000000 10.00000000 0.00000000 0.00000000 0.00000000 10.00000000" Properties=species:S:1:pos:R:3:Z:I:1:force:R:3
C 0.00000000 0.00000000 0.00000000 6 0.0012625560509284 1.481945607385366 0.00270048139447048
C 0.00000000 1.27586210 0.00000000 6 -0.00127129880158656 -1.4801168296594591 -0.0026829958931541597
2
energy=-4.759972596848537 config_type=Dimer dft_virial = "3.31623047279375e-07 3.3957922241937502e-06 3.580751226e-07 3.3957922241937502e-06 -0.0108110897676875 -1.03345960661875e-06 3.580751226e-07 -1.03345960661875e-06 -1.32303637965625e-06" Lattice="10.00000000 0.00000000 0.00000000 0.00000000 10.00000000 0.00000000 0.00000000 0.00000000 10.00000000" Properties=species:S:1:pos:R:3:Z:I:1:force:R:3
C 0.00000000 0.00000000 0.00000000 6 -0.00331401677889312 5.259744737515855 0.0009977021339312
C 0.00000000 2.05172410 0.00000000 6 0.00331247394054168 -5.284087641024875 -0.00099718785448072
2
energy=-3.973684414309563 config_type=Dimer dft_virial = "-6.080031680443751e-07 2.7627894323125003e-06 -2.28557448126875e-07 2.7627894323125003e-06 -0.0107193828141875 -1.4569652920875e-06 -2.28557448126875e-07 -1.4569652920875e-06 -2.88476464791875e-06" Lattice="10.00000000 0.00000000 0.00000000 0.00000000 10.00000000 0.00000000 0.00000000 0.00000000 10.00000000" Properties=species:S:1:pos:R:3:Z:I:1:force:R:3
C 0.00000000 0.00000000 0.00000000 6 -0.00249014109922416 4.848149922074844 0.00132118390828312
C 0.00000000 2.20689660 0.00000000 6 0.0025035123649366398 -4.831957833576483 -0.00131501255487736
2
energy=-3.259959673479939 config_type=Dimer dft_virial = "-1.3203565580187502e-06 -1.8712312153437501e-06 -3.26164659913125e-07 -1.8712312153437501e-06 -0.010276686205562501 -1.4047453378125e-07 -3.26164659913125e-07 -1.4047453378125e-07 -2.9493804000875003e-06" Lattice="10.00000000 0.00000000 0.00000000 0.00000000 10.00000000 0.00000000 0.00000000 0.00000000 10.00000000" Properties=species:S:1:pos:R:3:Z:I:1:force:R:3
C 0.00000000 0.00000000 0.00000000 6 0.00156495236781064 4.340019196704784 0.00010337016954647999
C 0.00000000 2.36206900 0.00000000 6 -0.00156906660341448 -4.343643323992316 -0.00010851296405128
2
energy=-2.628311680607412 config_type=Dimer dft_virial = "-2.1284451180000002e-06 -2.61304167970625e-07 -3.6953474169937503e-07 -2.61304167970625e-07 -0.009607537400062502 -1.09135912199375e-07 -3.6953474169937503e-07 -1.09135912199375e-07 -2.3622243976312504e-06" Lattice="10.00000000 0.00000000 0.00000000 0.00000000 10.00000000 0.00000000 0.00000000 0.00000000 10.00000000" Properties=species:S:1:pos:R:3:Z:I:1:force:R:3
C 0.00000000 0.00000000 0.00000000 6 0.00020725461854344002 3.808160131769026 8.588466823016e-05
C 0.00000000 2.51724140 0.00000000 6 -0.00020725461854344002 -3.8257916884492817 -8.537038877967999e-05
2
energy=-2.07736742355286 config_type=Dimer dft_virial = "-2.6225226612687502e-06 -2.3783749446937503e-07 -3.5299479833250006e-07 -2.3783749446937503e-07 -0.008834012385874999 -2.0654200569312504e-07 -3.5299479833250006e-07 -2.0654200569312504e-07 -1.7716180352875003e-06" Lattice="10.00000000 0.00000000 0.00000000 0.00000000 10.00000000 0.00000000 0.00000000 0.00000000 10.00000000" Properties=species:S:1:pos:R:3:Z:I:1:force:R:3
C 0.00000000 0.00000000 0.00000000 6 0.00017896924876704 3.2964376787168126 0.00015479811459448
C 0.00000000 2.67241380 0.00000000 6 -0.00017794068986608 -3.283337952554186 -0.00015582667349544
2
energy=-1.6026817364024375 config_type=Dimer dft_virial = "-2.76786953398125e-06 1.90861067513125e-06 -3.0927819499687497e-07 1.90861067513125e-06 -0.0080191707885625 3.53196049238125e-07 -3.0927819499687497e-07 3.53196049238125e-07 -1.6565453037625002e-06" Lattice="10.00000000 0.00000000 0.00000000 0.00000000 10.00000000 0.00000000 0.00000000 0.00000000 10.00000000" Properties=species:S:1:pos:R:3:Z:I:1:force:R:3
C 0.00000000 0.00000000 0.00000000 6 -0.00134946927805952 2.8235854950907786 -0.00024993981293328
C 0.00000000 2.82758620 0.00000000 6 0.00134998355751 -2.820668502047656 0.00025199693073519995
2
energy=-1.1983967423271038 config_type=Dimer dft_virial = "-2.7867868766e-06 8.543644006312501e-07 -3.33772221596875e-07 8.543644006312501e-07 -0.0071994569688125 8.5964259384375e-08 -3.33772221596875e-07 8.5964259384375e-08 -1.47917598476875e-06" Lattice="10.00000000 0.00000000 0.00000000 0.00000000 10.00000000 0.00000000 0.00000000 0.00000000 10.00000000" Properties=species:S:1:pos:R:3:Z:I:1:force:R:3
C 0.00000000 0.00000000 0.00000000 6 -0.00057187874893376 2.4013996086465834 -5.759929845376e-05
C 0.00000000 2.98275860 0.00000000 6 0.00057239302838424 -2.4153916096557926 5.9656416255679996e-05
2
energy=-0.8554826497661584 config_type=Dimer dft_virial = "-2.8431046592750003e-06 -4.3585473669625e-07 -2.50526889194375e-07 -4.3585473669625e-07 -0.006424772879312501 6.516785729000001e-07 -2.50526889194375e-07 6.516785729000001e-07 -9.459453243187501e-07" Lattice="10.00000000 0.00000000 0.00000000 0.00000000 10.00000000 0.00000000 0.00000000 0.00000000 10.00000000" Properties=species:S:1:pos:R:3:Z:I:1:force:R:3
C 0.00000000 0.00000000 0.00000000 6 0.00025765400469048 2.039015165263104 -0.00040525220697824004
C 0.00000000 3.13793100 0.00000000 6 -0.00027616806490776 -2.018402330608415 0.0004165663548888
2
energy=-0.5656509767862147 config_type=Dimer dft_virial = "-2.8276316522125e-06 7.386703033875e-07 -2.983529465975e-07 7.386703033875e-07 -0.0057186969974687505 -5.21808116889375e-07 -2.983529465975e-07 -5.21808116889375e-07 -1.41225608750625e-06" Lattice="10.00000000 0.00000000 0.00000000 0.00000000 10.00000000 0.00000000 0.00000000 0.00000000 10.00000000" Properties=species:S:1:pos:R:3:Z:I:1:force:R:3
C 0.00000000 0.00000000 0.00000000 6 -0.00053639346685064 1.7293423084360224 0.00036410985093983996
C 0.00000000 3.29310340 0.00000000 6 0.00044433744521472 -1.7047396938045098 -0.00031731042094616
2
energy=-0.32224513005229216 config_type=Dimer dft_virial = "-2.812590288875e-06 9.970096810125e-07 -3.1631190999062504e-07 9.970096810125e-07 -0.00506536820946875 -6.6361990785625e-07 -3.1631190999062504e-07 -6.6361990785625e-07 -1.33058780770625e-06" Lattice="10.00000000 0.00000000 0.00000000 0.00000000 10.00000000 0.00000000 0.00000000 0.00000000 10.00000000" Properties=species:S:1:pos:R:3:Z:I:1:force:R:3
C 0.00000000 0.00000000 0.00000000 6 -0.00057650726398808 1.4353364607883636 0.00038570958786
C 0.00000000 3.44827590 0.00000000 6 0.00057290730783472 -1.4522485405173986 -0.00038210963170664
2
energy=-0.11851114317671672 config_type=Dimer dft_virial = "-2.7527115996625002e-06 2.49901738696875e-07 -3.3172766533687503e-07 2.49901738696875e-07 -0.004472131392825001 -3.013936197125e-07 -3.3172766533687503e-07 -3.013936197125e-07 -1.3035835030125002e-06" Lattice="10.00000000 0.00000000 0.00000000 0.00000000 10.00000000 0.00000000 0.00000000 0.00000000 10.00000000" Properties=species:S:1:pos:R:3:Z:I:1:force:R:3
C 0.00000000 0.00000000 0.00000000 6 -0.00013011270097143998 1.1778845679219223 0.00020931173634536
C 0.00000000 3.60344830 0.00000000 6 0.00013988401053056 -1.1893596853004824 -0.000167140821406
2
energy=0.051485730449096656 config_type=Dimer dft_virial = "-2.793086864525e-06 3.19045265299375e-08 -3.0065304229500003e-07 3.19045265299375e-08 -0.003950648858824999 4.4399841290500003e-07 -3.0065304229500003e-07 4.4399841290500003e-07 -1.4145174548125e-06" Lattice="10.00000000 0.00000000 0.00000000 0.00000000 10.00000000 0.00000000 0.00000000 0.00000000 10.00000000" Properties=species:S:1:pos:R:3:Z:I:1:force:R:3
C 0.00000000 0.00000000 0.00000000 6 -3.497100263264e-05 0.9764629069058264 -0.00023553998831984
C 0.00000000 3.75862070 0.00000000 6 1.748550131632e-05 -0.9838618453598822 0.000231425752716
2
energy=0.19124667358135816 config_type=Dimer dft_virial = "-2.2802628184437504e-06 1.56827474611875e-07 -3.26482197708125e-07 1.56827474611875e-07 -0.00348565069791875 -1.13167707118125e-06 -3.26482197708125e-07 -1.13167707118125e-06 -2.0383735705625e-06" Lattice="10.00000000 0.00000000 0.00000000 0.00000000 10.00000000 0.00000000 0.00000000 0.00000000 10.00000000" Properties=species:S:1:pos:R:3:Z:I:1:force:R:3
C 0.00000000 0.00000000 0.00000000 6 -6.119925460712e-05 0.8009948726376542 0.0006315351651894399
C 0.00000000 3.91379310 0.00000000 6 7.302768196816e-05 -0.8319308387018283 -0.00056210743937464
2
energy=1.324259364343688 config_type=Dimer dft_virial = "-2.06579395774375e-06 -1.3827603979125e-07 3.86069170451875e-07 -1.3827603979125e-07 0.0031625643905125 1.59763811324375e-07 3.86069170451875e-07 1.59763811324375e-07 -1.8639371182375e-06" Lattice="10.00000000 0.00000000 0.00000000 0.00000000 10.00000000 0.00000000 0.00000000 0.00000000 10.00000000" Properties=species:S:1:pos:R:3:Z:I:1:force:R:3
C 0.00000000 0.00000000 0.00000000 6 9.051318328448e-05 -0.6574337640361623 -0.0001002844928436
C 0.00000000 4.06896550 0.00000000 6 -5.039938614703999e-05 0.6752509755980419 8.588466823016e-05
2
energy=0.3973956838644221 config_type=Dimer dft_virial = "-2.0496164225500004e-06 3.6225981549437503e-06 -3.09398993701875e-07 3.6225981549437503e-06 -0.0027504873304312503 2.8996158239125e-06 -3.09398993701875e-07 2.8996158239125e-06 -2.2441367722312504e-06" Lattice="10.00000000 0.00000000 0.00000000 0.00000000 10.00000000 0.00000000 0.00000000 0.00000000 10.00000000" Properties=species:S:1:pos:R:3:Z:I:1:force:R:3
C 0.00000000 0.00000000 0.00000000 6 -0.0016894079948268 0.5089988290824713 -0.00138701167794456
C 0.00000000 4.22413790 0.00000000 6 0.00154129551308856 -0.5128626105939276 0.0012414705934587198
2
energy=0.4690829897508775 config_type=Dimer dft_virial = "-2.72211724505625e-06 -7.412227547625001e-07 -3.23635864225625e-07 -7.412227547625001e-07 -0.0024697727410625 5.67594025585e-07 -3.23635864225625e-07 5.67594025585e-07 -1.39297513101875e-06" Lattice="10.00000000 0.00000000 0.00000000 0.00000000 10.00000000 0.00000000 0.00000000 0.00000000 10.00000000" Properties=species:S:1:pos:R:3:Z:I:1:force:R:3
C 0.00000000 0.00000000 0.00000000 6 0.00028388225666495996 0.38479262759979416 -0.00030702483193656
C 0.00000000 4.37931030 0.00000000 6 -0.00026948243205152 -0.41975745887902843 0.00021496881030064
2
energy=0.5226631489119397 config_type=Dimer dft_virial = "-2.76620865514375e-06 9.1459419361875e-08 -2.89816912246875e-07 9.1459419361875e-08 -0.0022444411279187505 -1.1872192687250001e-06 -2.89816912246875e-07 -1.1872192687250001e-06 -9.805733354375e-07" Lattice="10.00000000 0.00000000 0.00000000 0.00000000 10.00000000 0.00000000 0.00000000 0.00000000 10.00000000" Properties=species:S:1:pos:R:3:Z:I:1:force:R:3
C 0.00000000 0.00000000 0.00000000 6 -7.508479977008e-05 0.27149429326179775 0.00048907975740648
C 0.00000000 4.53448280 0.00000000 6 1.697122186584e-05 -0.28896590903295477 -0.00037593827830088
2
energy=0.5605196295554625 config_type=Dimer dft_virial = "-1.64565765631875e-06 -1.7673093840812502e-07 -2.99014208415e-07 -1.7673093840812502e-07 -0.00208917450718125 5.06609030283125e-07 -2.99014208415e-07 5.06609030283125e-07 -2.48103254550625e-06" Lattice="10.00000000 0.00000000 0.00000000 0.00000000 10.00000000 0.00000000 0.00000000 0.00000000 10.00000000" Properties=species:S:1:pos:R:3:Z:I:1:force:R:3
C 0.00000000 0.00000000 0.00000000 6 -1.748550131632e-05 0.1692545099474728 -0.00023708282667128
C 0.00000000 4.68965520 0.00000000 6 -3.2399605380239996e-05 -0.17572260259615974 0.00011468431745703999
2
energy=0.5822157327430277 config_type=Dimer dft_virial = "-2.286559457075e-06 1.58018198419375e-07 -3.23061241875625e-07 1.58018198419375e-07 -0.0019942513964875002 -1.012422875525e-06 -3.23061241875625e-07 -1.012422875525e-06 -1.8967427880875002e-06" Lattice="10.00000000 0.00000000 0.00000000 0.00000000 10.00000000 0.00000000 0.00000000 0.00000000 10.00000000" Properties=species:S:1:pos:R:3:Z:I:1:force:R:3
C 0.00000000 0.00000000 0.00000000 6 -3.651384098408e-05 0.09159522724828992 0.0001311412598724
C 0.00000000 4.84482760 0.00000000 6 1.851406021728e-05 -0.10969734962573545 -0.00011879855306088
2
energy=0.5896618836441349 config_type=Dimer dft_virial = "-7.0622705494375e-07 -1.0546613058875001e-06 5.6077883154125e-07 -1.0546613058875001e-06 -0.0019544043606437504 4.5118278431875e-07 5.6077883154125e-07 4.5118278431875e-07 -1.7503525743312501e-07" Lattice="10.00000000 0.00000000 0.00000000 0.00000000 10.00000000 0.00000000 0.00000000 0.00000000 10.00000000" Properties=species:S:1:pos:R:3:Z:I:1:force:R:3
C 0.00000000 0.00000000 0.00000000 6 -5.1427945048e-07 0.0 -1.02855890096e-06
C 0.00000000 5.00000000 0.00000000 6 -0.0 0.0 1.02855890096e-06
2
energy=-5.595019295313658 config_type=Dimer dft_virial = "-2.7972533476375e-06 -7.2897210236875e-07 -3.23485595991875e-07 -7.2897210236875e-07 -0.0103449780055625 1.5712512867125002e-06 -3.23485595991875e-07 1.5712512867125002e-06 -3.439224792725e-07" Lattice="10.00000000 0.00000000 0.00000000 0.00000000 10.00000000 0.00000000 0.00000000 0.00000000 10.00000000" Properties=species:S:1:pos:R:3:Z:I:1:force:R:3
C 0.00000000 0.00000000 0.00000000 6 0.00075547651275512 5.439188666215688 -0.0016786081263667199
C 0.00000000 1.89655170 0.00000000 6 -0.00075496223330464 -5.457967066070514 0.0016734653318619197
