12
energy=-146.68482980378928 config_type=Nanotubes dft_virial = "-8.423174151994266e-05 -3.7555370388910706e-05 2.6392532197948106e-05 -3.7555370388910706e-05 1.0406658880168654e-05 -8.139264894752512e-06 2.6392532197948106e-05 -8.139264894752512e-06 0.001312418293387502" Lattice="13.78696205 -0.00000012 -0.00000000 -0.00000012 13.78696231 -0.00000000 -0.00000000 -0.00000000 2.35176078" Properties=species:S:1:pos:R:3:Z:I:1:force:R:3
C 3.73773123 8.74155517 1.77243953 6 -0.660308071884895 -0.7186787895143749 0.14580902407954008
C 3.71422253 8.71603303 0.59692319 6 0.6571390819110373 0.7015805406242664 -0.14396018945506447
C 6.89316438 10.53026392 1.76790940 6 -0.22675146679058727 -0.5543917047790885 0.721738752244731
C 10.10228883 8.73325082 1.76837138 6 -1.1074323974417661 -0.9035087668990851 -0.37322956843520183
C 6.88479722 10.50990954 0.59477222 6 0.2410319785715159 0.5821314240585292 -0.7131924563366544
C 10.06211721 8.70085739 0.59062816 6 1.1077317080819455 0.9129144237689137 0.36948869971241033
C 10.06700085 5.09124605 1.74930749 6 -0.6338437656426447 0.24622465818301248 1.2924135729849173
C 6.90792022 3.22416959 1.78868455 6 -1.0024499618180314 0.10752451894745743 -0.24142848802783598
C 10.04440954 5.10084191 0.57871334 6 0.6356941431054717 -0.2884367154784109 -1.3112974001270925
C 6.87209246 3.22762874 0.61180894 6 1.0062746580912512 -0.08779470210924271 0.23672951668880024
C 3.70434131 5.06741175 1.73504905 6 0.8339972135338569 -0.05658771077466584 -0.7852286075242889
C 3.73428273 5.06527270 0.55595735 6 -0.828630707468098 0.06981034972595711 0.8034253573206228
16
energy=-142.12306312088114 config_type=Nanotubes dft_virial = "-0.0007236976253142 -0.00028482757022308503 5.5279181549433e-05 -0.00028482757022308503 0.0042436637795196 -0.001630790952576 5.5279181549433e-05 -0.001630790952576 -0.031234233484938" Lattice="20.00000000 0.00000000 0.00000000 0.00000000 20.00000000 0.00000000 0.00000000 0.00000000 4.26000000" Properties=species:S:1:pos:R:3:Z:I:1:force:R:3
C 11.71000000 9.95300000 2.32799999 6 -0.6962279201036706 2.309938608334869 0.4593724049495028
C 11.19000000 11.16100000 1.66800002 6 -0.8552559831783487 -0.10335782683966849 0.7695204559888278
C 11.16200000 11.18100000 0.21800000 6 -0.5263166752979348 0.3504187034091614 -0.4601268529033569
C 9.96500000 11.78500000 3.81899999 6 3.117366602618578 2.0308525218250852 -3.086004813169406
C 9.95700000 11.78200000 2.38499998 6 2.3289700336793318 1.273191864243777 2.2888552079829907
C 8.73800000 11.31900000 1.68500002 6 -0.9897878874677632 0.13336963273132985 -1.834314972750198
C 8.83500000 11.35300000 0.28000000 6 -4.305743499889193 -2.169933742133446 1.4857960176311098
C 8.25400000 10.01200000 3.73600002 6 1.5476268074034192 0.3628956371572567 4.018603282905442
C 8.31900000 10.08600000 2.38499998 6 0.013499321295649519 -1.961458738454017 -2.855698646817101
C 8.77700000 8.73900000 1.64999998 6 -0.047528163975010154 1.1009838474121973 -0.5675161163553382
C 8.79500000 8.76600000 0.21999999 6 -0.19394763776226998 0.8279863153166466 -0.9718174206296406
C 10.04000000 8.20800000 3.72200000 6 0.1378932347777519 -0.3480694748793688 -0.1959913842984775
C 9.96900000 8.08200000 2.28200000 6 1.7009041976628299 1.3926903516367601 1.876720399118977
C 11.26900000 8.76900000 1.62199998 6 -0.4889403876753999 -2.786339834448665 -1.101406585120492
C 11.34000000 8.77800000 0.22499999 6 -1.0854680363912157 -1.6991067909834023 -0.12737827713323785
C 11.67800000 10.02400000 3.77299999 6 0.36566348915974006 -0.7245235754690803 0.19690165892582712
28
energy=-234.34689148614862 config_type=Nanotubes dft_virial = "0.02329575964790161 -0.0018678452106164188 0.009720029393734042 -0.0018678452106164188 -0.00037409789942802863 -0.0031457924318086493 0.009720029393734042 -0.0031457924318086493 -0.07996684333663057" Lattice="12.07100000 0.00000000 0.00000000 0.00000000 12.07100000 0.00000000 0.00000000 0.00000000 11.27100000" Properties=species:S:1:pos:R:3:Z:I:1:force:R:3
C 11.24399998 1.60299995 7.26100001 6 -0.0812587245730924 0.8502006161801301 4.326134680100725
C 10.76700005 11.04500001 8.44499997 6 -0.8425316810145724 -0.7870887562966751 1.1919670821144162
C 1.33000004 11.13500005 8.56699998 6 0.9741445351430625 2.179632024010598 -3.8768200383642597
C 1.16600006 10.92299998 9.78099995 6 1.4965228584092216 1.1166631992984315 4.563356362223634
C 10.63699996 11.33599995 11.08700002 6 -0.5580842312335349 0.34878535187443693 2.4704920242596704
C 1.21499999 11.09599998 11.15700003 6 1.1943965382384838 -1.5371319066574738 -3.715977597388288
C 1.04100002 10.81699994 1.09900004 6 -0.02419530530673256 -3.7461133446275148 4.008134096132021
C 10.82800000 11.86900002 2.44899996 6 -1.3911017424142273 0.8981479179072815 -1.204167333518153
C 0.76199998 10.23600002 2.30400001 6 -2.0643053715199082 -0.4812729953481936 2.2128375052897398
C 0.16199994 9.93199997 3.53900000 6 2.4348725152399755 1.281267080175214 -5.06803164396592
C 11.50899995 9.99300004 4.61499999 6 0.10053340409763231 0.6811420467032904 4.366384247013092
C 11.28499997 10.42400005 5.91199995 6 -0.3806125642262927 -1.9669718141631627 -1.735440634159814
C 10.92899999 10.78300004 7.16699999 6 -0.36892453515523377 -0.9480654242092218 -0.9876705989701371
C 11.50400002 2.03399995 8.60300000 6 -2.9961113366227545 1.2437447371887425 -5.783560986125556
C 0.46599999 3.01700003 10.31600005 6 3.428847665993547 -2.7283409408618824 7.317529559883128
C 11.54599998 3.02100000 9.56699995 6 -3.6462078757389187 -2.7488596623771335 -7.933935652198346
C 1.07000000 1.31100005 1.01499999 6 -0.7940017006700273 2.5911774686243616 0.4769597335970179
C 0.50799995 2.03800004 11.25399995 6 4.218987127990469 0.24563940816836624 3.835184488332849
C 10.64800003 11.50100002 1.18699995 6 -0.39094495266588636 0.5171933578464196 -2.444778566015121
C 1.41600000 0.73800006 3.66300005 6 0.5590623907483478 0.5397239405719485 -2.837594467321854
C 1.45099999 0.89399999 2.24399997 6 -0.9504413952704394 0.982645574459497 2.0082144546944063
C 10.83899994 0.36899997 3.63499995 6 -0.8511345476622018 -1.0100278695208542 1.2133873355063585
C 10.86500003 0.51300000 4.95000003 6 -0.6879084214332556 0.6819664366624097 -0.6203789010701773
C 1.39199996 0.25599996 6.22500001 6 1.1190252848144862 -0.3677154641671553 -0.6776732318098028
C 1.31700006 0.51500004 4.95100000 6 1.7390405903131743 0.9321747034688403 -3.7346073704819256
C 11.00900006 0.78099998 6.24199995 6 -1.0044031951709544 2.788902488950407 0.2474501861135063
C 10.72900006 11.16400003 9.79100003 6 -1.0998472898266367 0.3559940069318151 -1.4874221692535274
C 1.35999998 11.71899998 7.31699998 6 0.8251716638841695 -1.9568595373283746 3.974209137901657
12
energy=-101.93656570258129 config_type=Nanotubes dft_virial = "0.0185992600719795 -0.008605010053511851 0.004121108421211951 -0.008605010053511851 0.0220120966940775 0.0040764691385296505 0.004121108421211951 0.0040764691385296505 -0.00592236622818315" Lattice="20.00000000 0.00000000 0.00000000 0.00000000 20.00000000 0.00000000 0.00000000 0.00000000 4.26000000" Properties=species:S:1:pos:R:3:Z:I:1:force:R:3
C 11.21800000 9.86500000 2.27000000 6 3.248549004847016 -2.4316140406417337 2.193589568296625
C 10.76500000 10.97100000 1.52900001 6 -0.38455348765532094 2.758212348463563 2.594677140284878
C 10.71900000 10.99200000 0.13099998 6 0.6333850283728166 1.0533517989881904 -0.8389764671734041
C 9.41700000 11.30100000 3.77100001 6 0.1176748524615812 1.409351977273411 -0.27499242208396274
C 9.50900000 11.13600000 2.37600000 6 -1.754676228446118 3.6442330426490757 -0.3293404458517881
C 8.75800000 10.10600000 1.64800000 6 -3.9806962588900117 2.6436627722225485 1.4561766069601647
C 8.77000000 10.13100000 0.28500001 6 -2.1021779388121566 1.163230689259945 -2.9940578187769877
C 9.31300000 9.01500000 3.80400001 6 -2.2707422857370854 -0.6113800392456783 2.0892792959146678
C 9.26200000 9.04500000 2.40699998 6 -1.2072319247635634 -2.39722777374429 -0.23055970612139168
C 10.44700000 8.78800000 1.69700001 6 4.3792206620970715 -4.016431480786065 -0.6414628157015059
C 10.46000000 8.80200000 0.36099998 6 3.221633161247244 -3.1228189933525665 -4.012318273741125
C 11.36100000 9.84800000 3.72100001 6 0.16685179635483022 -0.119917110865674 0.9365177934281439
20
energy=-244.57186922114735 config_type=Nanotubes dft_virial = "-0.000943050260977586 3.77826568354479e-05 -2.632709646097275e-05 3.77826568354479e-05 -0.0007696699766666111 6.224044112500068e-05 -2.632709646097275e-05 6.224044112500068e-05 0.0029387730961443082" Lattice="16.44447551 -0.00000000 0.00000000 -0.00000000 16.44451573 -0.00000000 0.00000000 -0.00000000 2.35147586" Properties=species:S:1:pos:R:3:Z:I:1:force:R:3
C 2.19385287 10.21714733 1.76502610 6 0.5114622276502705 0.13100497581802278 0.21182296290205385
C 4.45961267 3.11508165 0.56405087 6 -0.12820472421015922 -1.0853209524683785 0.43857854392824497
C 8.20230047 1.89583296 0.58253678 6 0.6333932568440243 -0.06929041320152184 0.1474212901567949
C 4.45431640 3.07579209 1.74163600 6 0.15851172650639608 1.0873019569116276 -0.4299833914723727
C 8.22502641 1.89350064 1.75916658 6 -0.6265096263993494 0.08630534882065263 -0.14650638701439095
C 11.97433805 3.06248716 0.59398882 6 -0.02192681865066528 0.67853824984551 -0.49447814879816854
C 14.27954584 6.25059167 0.60716043 6 -0.19309136247722078 -0.3479892472850939 0.06504915057341328
C 11.97384110 3.08698669 1.76790960 6 0.00539993423004 -0.6647709889561605 0.49998351031555693
C 14.27224466 6.23798202 1.78325270 6 0.19603098381616446 0.3435669582904164 -0.06601342454306328
C 14.22674526 10.20900088 0.58158639 6 0.46512513488257207 -0.173375431184169 -1.100848591916721
C 11.94550414 13.36671034 0.58674973 6 0.47343537652287837 0.22459149309857124 -0.0785536146635676
C 14.24282894 10.20251451 1.75296026 6 -0.4317165132204903 0.17952878480916223 1.089259818779605
C 11.96255459 13.37523863 1.76244877 6 -0.47063101067941093 -0.24060975514267183 0.07829184642327328
C 8.24653052 14.53608873 0.56987592 6 -1.438400023474873 0.031179734523701437 0.34172429501934654
C 4.50228164 13.33484284 0.58584298 6 -0.9987862350128118 0.33583733814970196 -1.1965302836785252
C 8.19487102 14.53753273 1.74717354 6 1.4342683023697167 -0.04210971568475288 -0.3364153882520415
C 4.46608077 13.34697593 1.75681691 6 1.0060787176206183 -0.3392716963200074 1.190107961900931
C 2.21292583 10.22192660 0.58988035 6 -0.5421621394466741 -0.12968224907138823 -0.2101037266990992
C 2.21849163 6.23391973 1.76699906 6 -0.6826946563642894 1.4160628098227246 -0.5818027994896725
C 2.19441511 6.28545997 0.58851285 6 0.6519613164036046 -1.405302026600881 0.5789254059642369
28
energy=-231.14236709783606 config_type=Nanotubes dft_virial = "0.01911882341274108 0.000143622227706554 0.009299040972416526 0.000143622227706554 0.012288821538312917 -0.0035146142686533197 0.009299040972416526 -0.0035146142686533197 -0.04010385856005715" Lattice="12.07100000 0.00000000 0.00000000 0.00000000 12.07100000 0.00000000 0.00000000 0.00000000 11.27100000" Properties=species:S:1:pos:R:3:Z:I:1:force:R:3
C 11.00700002 0.36299996 7.08900004 6 -2.1273292896173315 -3.427744536572267 -1.1204374961855044
C 11.86900002 10.88700003 8.65800000 6 -0.6531277021972933 -1.008445431651727 1.1877011340726844
C 1.10700003 11.57000003 8.60900000 6 1.733647855995441 -1.4579015002370745 5.45194073946979
C 1.27100001 11.85300003 9.98300005 6 -0.10038683445424551 0.0211163142367088 0.6846509753939153
C 10.94899995 11.61000006 10.90499997 6 2.099223403369149 0.6763057627509764 1.9958527195432183
C 0.34200004 11.04700005 11.01000005 6 -0.29803317002436763 -2.3302572751438833 1.1463983228457348
C 0.45099996 10.35999997 0.91499996 6 0.48626973448905725 0.3781116232586085 2.1258497076383005
C 10.64400006 0.92400004 1.86900005 6 -0.49159509819877767 -0.7360897203103753 3.5510764629891285
C 0.38499996 10.31299996 2.25800002 6 -0.27079178753244204 -0.08780601625715327 0.47640276895214795
C 0.27399999 10.39199995 3.61299998 6 0.5573914968137385 -1.3761398103614129 -3.293651312654112
C 0.20199998 10.34999999 4.91499997 6 -2.2161108939920453 -0.9459702497279662 2.7744095797564303
C 11.88500001 10.16799997 6.20000003 6 1.8060038890012742 1.7299800149546176 -1.5961418736439006
C 11.54200001 10.94300006 7.33799999 6 -1.608111213574372 -2.228358973384677 -3.744267595679742
C 11.62499997 1.17799996 8.02500001 6 2.2222524191896773 2.942625759493384 0.495480479447154
C 0.60900006 1.12900003 10.23599996 6 4.717329058300094 0.5809187531142974 -1.026342356528431
C 11.58399997 1.08999995 9.35799999 6 -5.773817961936212 1.3270976076841894 -0.5826585604952713
C 1.16100001 1.06900003 1.38799998 6 -0.17282720928995735 -1.5471922412677637 5.882147328223671
C 0.39500006 1.31500001 0.29900002 6 -0.9037257928271877 0.5607502559048232 0.6170720842035909
C 11.13099997 0.78000002 0.54199996 6 -2.753001154791849 -0.12353712391760271 2.294911362791843
C 1.17799996 0.58500001 4.00399998 6 1.6410703549967343 2.198798704850537 3.988275195151736
C 0.97800002 0.65000005 2.72699997 6 2.2200934740565623 2.7991988778284673 -4.244432646641319
C 10.59200000 0.93400002 3.20699996 6 -1.3969948706372777 -1.8148438384755747 -1.0245763208954828
C 10.40000000 0.53299995 4.58100001 6 0.8931280361911463 1.6897247909682958 -2.4098497342974206
C 1.44000005 0.87700004 6.68999999 6 1.1828869641367412 1.0626504857323191 -7.64579259028616
C 1.47200003 0.98800000 5.32300003 6 -1.0243927231316616 -1.965154350585166 1.3698229158711668
C 10.55400001 0.34800005 5.84800005 6 -1.0931344001595211 2.877327183386488 -3.554583334561951
C 10.90399998 11.84799998 9.55399998 6 -0.8636701092676519 -0.5993561856934558 -1.0117275631046905
C 0.97200001 0.74800004 7.92700002 6 2.0948227141113915 0.8497891926197463 -2.8353064380466684
52
energy=-442.93451930677367 config_type=Nanotubes dft_virial = "0.029120875586688 -0.0094115505871872 -0.008804534995775999 -0.0094115505871872 0.0324165771585408 -0.0055889659494912 -0.008804534995775999 -0.0055889659494912 -0.09369597535680001" Lattice="20.00000000 0.00000000 0.00000000 0.00000000 20.00000000 0.00000000 0.00000000 0.00000000 15.36000000" Properties=species:S:1:pos:R:3:Z:I:1:force:R:3
C 11.90000000 10.11300000 1.92400005 6 3.38606990130262 -1.6530993513434613 -2.037892493222706
C 8.46400000 9.47900000 0.69000008 6 -1.5862409656632595 0.4963084693624269 0.08988781947269632
C 10.40700000 7.92000000 1.87400003 6 -1.291533640845146 -0.44350996957889766 -0.3121053986278519
C 7.67700000 10.01700000 6.68899999 6 -0.4220717164061884 1.3474327314356191 1.5685939805994888
C 9.68400000 8.28900000 6.93300004 6 -0.8732531925478961 -1.6243146162206454 1.742365921239978
C 8.86500000 9.26100000 13.45900001 6 -1.2810341115841464 -0.801990003374333 1.169277587038689
C 11.17700000 8.11500000 14.76200003 6 -0.568522046960477 0.1886629021291375 0.1973213109574188
C 8.02700000 8.81500000 4.51100006 6 -0.7185301627531864 -1.5042807639197124 -0.03665681067131344
C 10.90300000 7.79900000 4.69900001 6 -0.5362314688237387 1.5274454532076829 2.4697869471330622
C 8.85900000 8.98800000 10.84599997 6 0.1406369156460627 -1.1198913314090946 -2.3244901453862004
C 11.39600000 8.96200000 12.30299996 6 1.7679256099288339 -2.013089309605506 -0.5386290396218766
C 8.95500000 8.78300000 9.48900004 6 0.7107151722236922 -0.9942245762870542 0.08784715861319167
C 9.34000000 7.80200000 2.70400005 6 4.7634342110356265 -1.1487007519455337 -4.203439945923009
C 9.16300000 8.49200000 8.14700006 6 0.1801490058264411 -0.7579219115421524 2.7259068562227604
C 11.50400000 9.42900000 9.75199995 6 1.4077037116346227 -0.5029874165858106 0.7552785151666852
C 10.60700000 8.10000000 0.56600003 6 1.237339386633014 -1.8569525256014265 0.22097867995894924
C 12.48000000 10.09600000 0.62999992 6 -0.2921086707548381 0.811288690118462 0.5980725441850578
C 10.08000000 7.83700000 5.75599995 6 2.3290374042873445 0.5547439862026674 -0.31271121982051736
C 11.36400000 9.96800000 7.17399997 6 -0.733129013513962 0.2829467823445369 0.7395667636750707
C 11.29700000 8.50600000 13.52499994 6 0.7703304461233338 -0.5115085128008137 -1.8153822890602276
C 12.04500000 11.09400000 13.65500006 6 -0.15969971203700487 0.3778436836649084 -2.1763293213796153
C 11.58700000 8.96400000 4.15699999 6 0.10126522375566535 -1.7641729127786814 -1.4210909200100676
C 11.24200000 10.31900000 4.58600003 6 -1.1855329319094607 -0.46991667652269425 2.762683494006036
C 12.01900000 9.10400000 2.84899999 6 -0.31896794361505704 -1.880551781025053 0.34372998487621853
C 8.11700000 11.02000000 9.10500004 6 -1.9827956785749816 0.7399411591150201 -0.21431464683962942
C 8.54700000 7.96200000 3.61400003 6 -4.0701988830542986 2.4086195778518724 4.505836262805248
C 8.18600000 10.78900000 2.89400003 6 1.5833795148007888 0.3144582271137979 1.0215585290800662
C 10.82600000 10.96800000 2.20599997 6 1.3920706448989317 0.4018399628243052 0.4739969696828025
C 11.42000000 9.83100000 8.47900001 6 1.578308719419056 -1.213812130332455 -2.1645204366376936
C 10.24000000 12.07900000 8.82700001 6 0.8689239881337556 -0.02610842486251816 -3.2033263556485077
C 12.22400000 10.57200000 14.84199997 6 1.1481941866868108 0.9985506950244919 0.05585794823443472
C 9.89200000 11.55900000 15.31999995 6 -1.9619483324908742 1.8484190866796122 -5.1888641722534485
C 10.76000000 10.53300000 5.93099996 6 2.6650279977132896 -0.3087625821997319 1.6046454843575875
C 9.81000000 11.65600000 6.13999995 6 1.3592637301939117 0.7059020308466499 1.3762231236323905
C 11.59800000 11.37700000 12.45800003 6 1.8025705593898695 0.1346095604864371 1.831721975760878
C 9.15400000 11.83700000 12.79400003 6 -1.8252430832437307 0.46535707491473854 0.7030740081484604
C 10.56500000 11.00100000 3.55499996 6 -1.7972410814445452 1.2500621459584387 -0.4148990609103438
C 9.20500000 11.34700000 3.82099999 6 -2.462581892031838 0.33544082869338193 -0.17869308070213222
C 10.76100000 11.77000000 10.00099999 6 1.0626967708828623 0.8107414967831512 2.5224167632568344
C 8.01600000 11.49100000 10.40699996 6 1.5025666705112626 -0.3523122803458288 -1.343153412128175
C 10.17200000 11.44200000 1.13099996 6 0.043133131791208076 0.6440902694140082 2.618911530829847
C 8.11600000 9.90700000 1.96500004 6 1.1160542924290633 0.6690919648990935 -3.687713827348808
C 10.12300000 12.03900000 7.49900006 6 -1.0004406720050059 1.688306922523322 1.9071040290533354
C 7.93400000 10.57300000 7.84500004 6 -1.8618330375864818 1.0303604218750313 2.1253004571851877
C 9.44200000 11.76900000 14.06400000 6 -0.3261714558779304 0.21882127766418566 -1.3362517819027335
C 8.70600000 9.16000000 14.78600003 6 -1.6357599053910779 1.0383014108698931 0.16179385795935944
C 9.13700000 12.04000000 4.98499999 6 -0.8667994997238228 0.14041217552620294 1.8383438379652586
C 7.54500000 9.43600000 5.54400000 6 0.6305302631432022 -0.8383346464192052 -0.7468196467651902
C 8.60900000 11.78700000 11.55399997 6 -0.6895376587323764 -0.3415540685212377 -0.17279840964073048
C 8.88400000 9.19500000 12.14899999 6 -0.6389783316762371 -1.2520781214043204 -0.6279804656277223
C 11.75000000 9.12400000 11.00899999 6 -1.377071170446232 -0.7903410595415106 -0.5726069686356396
C 11.21900000 11.48300000 11.22600008 6 -0.9905089072573362 2.7441982334379826 -3.0714291049839018
12
energy=-98.52494965029223 config_type=Nanotubes dft_virial = "0.008925249285972232 0.006783682390182066 0.0050248613150412885 0.006783682390182066 0.008149514529105256 -0.0017819773839884818 0.0050248613150412885 -0.0017819773839884818 -0.037433152287405465" Lattice="14.34958912 -0.00000000 -0.00000000 -0.00000000 14.34958912 -0.00000000 -0.00000000 -0.00000000 2.50320744" Properties=species:S:1:pos:R:3:Z:I:1:force:R:3
C 5.24266644 8.23204072 1.88828016 6 0.7771400203271395 2.4580742326483804 -1.4910298395986448
C 5.61965612 8.80049754 0.61355524 6 -4.1331549162642585 -1.7775472641678642 1.6593108185463588
C 7.75466174 9.28718882 1.84012323 6 -7.961728342261186 1.407903252061409 2.442036942264612
C 8.99122194 8.58145752 1.90772608 6 6.4352080777849165 -5.228594831200281 -2.929006611085773
C 6.93711615 9.29282807 0.62446542 6 9.1474777858193 3.735462617208074 -2.1076452436502096
C 9.48440441 7.96237635 0.61180478 6 -2.6770137945861765 5.461909532337894 2.6880867454344615
C 9.27585250 5.85263877 1.88245653 6 4.477779747384312 2.7487547493692355 -0.7598977731908965
C 7.97037223 5.24903651 1.84044873 6 -7.974565785904069 -2.4840720874290456 2.2837730984533473
C 9.64335122 6.42212647 0.62290412 6 -0.7229997654573079 -2.344895725422346 0.49729640018679894
C 7.18920298 5.28267022 0.62551362 6 6.1233253621591235 -1.0363898341524589 -2.3927489140100597
C 5.53770030 6.81047586 1.93478435 6 1.1577124707562947 -9.980123472957295 -2.4968133608146874
C 5.93583382 6.04368791 0.62718238 6 -4.649609768819789 6.968746779405943 2.8554399642535095
52
energy=-445.54178481202246 config_type=Nanotubes dft_virial = "-0.00294389015971968 -0.0120447949751808 0.008262287892710402 -0.0120447949751808 -0.0019889567544192003 -0.0083978775990912 0.008262287892710402 -0.0083978775990912 -0.070838745906816" Lattice="20.00000000 0.00000000 0.00000000 0.00000000 20.00000000 0.00000000 0.00000000 0.00000000 15.36000000" Properties=species:S:1:pos:R:3:Z:I:1:force:R:3
C 11.48700000 9.85200000 1.82400000 6 -0.34158029677321217 1.4909511548427214 0.05970784420072799
C 7.93700000 10.22800000 0.60099994 6 -0.4635771537366273 -2.017310515335046 -5.102268255543275
C 9.52700000 7.84800000 0.98600003 6 1.1537756615628705 0.7155272850418336 2.229713071177791
C 7.77100000 9.37800000 6.92400000 6 2.319284608788442 -0.9006468017571639 -1.6674595764392146
C 10.89700000 7.64500000 7.71199995 6 0.5283275079493116 1.696371338586299 0.06594296825834751
C 8.28700000 8.98700000 13.57100006 6 -0.8528542981446071 0.29741192044818787 2.1600163772103897
C 10.92500000 8.27300000 14.16400005 6 1.0358261838747327 -0.5722742298311791 -1.5587311292981834
C 7.96200000 8.30600000 4.62000000 6 2.9967834998645317 0.5175317537248355 -1.808617971448064
C 11.67700000 8.25900000 5.32399995 6 -0.22051788557131918 2.0896269488231924 -0.8596145015211666
C 9.25200000 8.36400000 11.32700006 6 3.9274971354145585 -3.7199406348336868 -7.945101687627169
C 11.52900000 8.94000000 11.70900004 6 0.19826604230795056 -1.133067170930392 -2.4158930321200107
C 9.98900000 7.87800000 10.28400000 6 -1.0916712751229056 1.0018991685265672 1.8310842692422828
C 8.95900000 7.84700000 2.20300001 6 1.940892703229322 0.8378728234726742 -1.200716004125982
C 10.74200000 8.09100000 9.04300001 6 0.4131690248389291 1.0738736061801442 0.4982159318442572
C 11.48700000 9.35000000 9.27699994 6 -0.6005678280787867 3.9922006901972495 1.4169705130528218
C 10.71800000 8.25300000 0.14300006 6 -2.3479891163169833 0.4472832379070694 -0.29504983493213316
C 11.45600000 9.65400000 0.40000005 6 -0.6988456025066138 -1.9663731928828039 0.33039214732801975
C 11.41500000 8.52700000 6.65099996 6 -1.071242038232038 -0.9869763217119891 1.2856384555042937
C 11.32700000 10.01000000 6.90700001 6 0.22254311804730945 -0.7229077094356721 0.8106226982300904
C 11.28800000 9.08000000 13.01799997 6 1.1990461387502733 -1.468756396598356 3.1364263133328167
C 11.27200000 10.50100000 13.42200008 6 1.993011839858767 -3.3710611698198116 1.4632268639467951
C 11.55400000 9.20500000 4.27699999 6 2.11035652491314 -3.6416986735171095 -2.2440023257093773
C 10.87900000 10.44100000 4.48000005 6 0.5265789578176797 -1.0786594907463112 2.8355759204787194
C 11.90300000 8.99500000 2.83200000 6 -1.0597905777082 1.0391679717439517 1.0554459449105449
C 8.05100000 10.63800000 9.25100006 6 -0.9418709282281903 -3.458165708906511 0.981769242275879
C 8.62100000 8.12600000 3.48400005 6 -1.3681036796682122 -1.2438625071829026 -1.9472533114728583
C 7.97200000 11.72300000 2.83499996 6 1.286868611949842 -0.5382366444011604 -1.7600951910158256
C 10.51300000 10.98200000 2.14099999 6 2.1556460304402107 -1.1946927632019602 1.2277485891610127
C 11.44200000 10.46200000 8.25899996 6 -0.763266817870991 -2.809702521325071 -0.2763532055099328
C 11.02300000 11.82900000 8.58700001 6 -0.5858717785018703 0.4126269742981232 1.0290762660871828
C 11.13800000 10.63100000 14.77200000 6 0.14658301465251247 0.8881364398447875 2.7351047441945955
C 10.11400000 11.56100000 15.16500004 6 0.37245197790607604 1.5143344128971459 0.7307232142446166
C 10.90700000 10.84900000 5.86899994 6 -0.3671672422729436 0.3784664760794397 -1.4659942016698277
C 10.25600000 12.11700000 6.18499999 6 -2.4466510574943188 0.0161149465807908 -0.2883122598513947
C 10.83500000 11.34400000 12.51199995 6 -2.2809944465824037 3.208916058995775 -4.727359050422805
C 9.31400000 11.57900000 12.82399995 6 3.7343080598417466 2.0884693057801615 3.4296777130266216
C 10.11300000 11.01000000 3.48499999 6 1.7117606368624625 0.43516989973046355 -0.37134884848479643
C 9.00000000 11.81100000 3.82000005 6 -2.0553255380350772 2.040336349171387 1.8988997289798277
C 11.13900000 12.08400000 10.00099999 6 -0.35816529477174164 0.06563491486751 -1.256958119109925
C 8.09800000 10.76600000 10.63799992 6 2.3547899477701306 1.677946248713952 0.758405848505054
C 9.80200000 11.68200000 1.20499999 6 -2.0233610130699433 -1.6318410959784204 -1.737822262294987
C 8.32700000 11.26400000 1.44200003 6 -0.1792978733358967 0.20450990911622824 2.8475241749517215
C 10.26000000 12.44700000 7.58100004 6 0.886900626325284 0.32162573981513765 -1.3951933497222464
C 7.93500000 9.77900000 8.14399995 6 0.09690927681009975 3.7698396270754095 3.693582784437686
C 9.22900000 11.84800000 14.18499994 6 -0.8675539476776768 1.0997151200078632 -0.408068915528519
C 7.98900000 9.38600000 14.81700004 6 0.3799604578830841 3.305538882151957 2.677701386211468
C 9.26100000 12.43100000 5.11100006 6 0.7510701664234074 -0.8619997296124929 0.2690123806337813
C 8.27000000 8.87000000 5.77200000 6 -3.353440927287466 0.4651822199015754 2.712454334357105
C 8.54900000 11.11100000 11.91500006 6 -5.037441787971919 -1.6338426715996883 -9.49770260587563
C 8.73400000 8.62900000 12.40899994 6 -2.8636452928859177 0.3029897953680939 5.292914219233463
C 11.59500000 9.87000000 10.67599995 6 0.0780059070488064 -2.204790060448629 -0.767702478131381
C 11.27500000 11.26300000 11.04600008 6 -0.25287377719826837 -0.2599944904696145 1.4885664410308455
28
energy=-227.1653364429585 config_type=Nanotubes dft_virial = "0.01625524632139198 -0.0027414011284172582 -0.0011743185584024653 -0.0027414011284172582 0.027191375023494356 -0.010249203607085814 -0.0011743185584024653 -0.010249203607085814 -0.030894752774917256" Lattice="12.07100000 0.00000000 0.00000000 0.00000000 12.07100000 0.00000000 0.00000000 0.00000000 11.27100000" Properties=species:S:1:pos:R:3:Z:I:1:force:R:3
C 10.90900003 0.77499997 7.03299997 6 -2.260217556783012 -0.5183998574372457 -3.4221872328303804
C 11.87399995 11.02200004 8.57100005 6 1.4056568794217124 -1.3211530515160912 -3.6563576949735914
C 1.09500000 11.91600003 8.82500004 6 1.7234769513032981 -5.182524135187931 0.3238139988769301
C 1.17499995 0.03000006 10.12200000 6 2.3729162412817484 -1.0036821753813814 0.8147945331323841
C 11.19099996 11.15800002 10.85299997 6 -0.3491803184924056 -0.047788903656403516 -2.0450332633926207
C 0.60000004 10.97299999 10.90499997 6 -0.1452885732756543 -2.1958827403663155 1.0820182498373958
C 0.95799995 11.03299998 0.96099995 6 -0.7389383141865841 -2.157580235453466 -0.7692262881431532
C 10.75500002 11.73300005 1.97100001 6 -1.4027609718360594 -0.7167872696955097 2.7048265415475856
C 12.01899994 10.81599998 2.01900004 6 -0.36978286755808487 -0.45166078458955516 2.5596531668688387
C 0.37799999 10.88299994 3.31900000 6 1.0253220260986788 -1.9508177823441353 0.13601714334240086
C 11.98999997 11.10599996 4.54799998 6 -2.619395982072199 -1.2813745645803643 3.648875443248558
C 11.85799996 10.71800000 5.92999996 6 1.4622430473580268 -0.1050261493770256 -0.6886386982529373
C 11.53900001 11.12099999 7.16799995 6 1.500868005486327 -3.0596634197158203 -1.32243772158339
C 11.52300002 1.22300004 8.14299995 6 0.6442985525914526 2.5673822727301028 2.299154682537754
C 0.27799996 1.14899998 10.46499997 6 3.015855553285583 1.9691914442714342 -0.2875192409387546
C 11.23000003 0.94400000 9.54799998 6 -3.232561599569944 1.6562282275201816 -1.9207910623484101
C 1.32199999 0.24299997 1.33800002 6 1.6707082797278965 2.635119561991175 1.5184075061449476
C 0.26700002 1.01999998 0.50499997 6 -1.9390968393882457 0.12837289359046614 3.316628804222108
C 10.95099999 0.10199995 0.65100000 6 -1.3987825060071464 1.1487382943454187 0.0861263795718856
C 1.59800002 0.72499995 4.08999997 6 0.11069556603911711 1.8459130029174229 -1.6745900610201196
C 1.63600001 0.29299999 2.74700002 6 -0.42102001492995683 2.918505024706971 6.04909426627684
C 10.06600002 12.03399997 3.16200004 6 1.7745968429604604 1.8770814232932138 2.1181401443961545
C 10.63099995 0.21199996 4.58100001 6 -1.1395455491680888 -2.4861904044855727 -6.714881985706599
C 1.43800000 1.40300002 6.73999995 6 -0.26328073615818165 -2.935869156072978 0.9328916090228094
C 1.40600002 1.14299997 5.47000002 6 1.9743434958063428 -0.9010088544903018 -2.9697632575363127
C 10.47200002 0.62000000 5.78599997 6 -0.8189072258978727 3.2842893695375737 3.4161799345693233
C 10.94799998 11.59900000 9.52099996 6 -1.1266325064459866 -0.8977755795851341 3.8589699129175488
C 0.95799995 0.92899997 8.10100003 6 -0.48140670800531843 7.166779338843376 -9.46956637713987
16
energy=-135.15877466359098 config_type=Nanotubes dft_virial = "0.030430457675775003 0.00604024290371355 -0.00035686079084472 0.00604024290371355 0.025421106166900503 0.0036219848040148508 -0.00035686079084472 0.0036219848040148508 -0.0287469293772165" Lattice="20.00000000 0.00000000 0.00000000 0.00000000 20.00000000 0.00000000 0.00000000 0.00000000 2.46000000" Properties=species:S:1:pos:R:3:Z:I:1:force:R:3
C 12.78300000 10.04300000 2.03299999 6 -0.0686383068583132 -4.508245662030747 -3.731597292858266
C 12.24900000 11.42400000 1.96300000 6 -2.386425333886957 4.434673872403979 0.9295390212851303
C 11.75100000 11.97100000 0.73500001 6 8.514694978682995 -4.417539109672886 -0.32446919089684156