4
energy=-24.823725184184315 config_type=Crystalline_Bulk dft_virial = "0.016939874916977293 0.0065959967159500395 4.5765878965713217e-07 0.0065959967159500395 0.018150401155427754 -3.727070452009665e-06 4.5765878965713217e-07 -3.727070452009665e-06 0.0017439963592393618" Lattice="2.40601600 0.00000000 0.00000000 -1.43379800 2.06988900 0.00000000 0.00000000 0.00000000 7.03445600" Properties=species:S:1:pos:R:3:Z:I:1:force:R:3
C 2.40204790 0.00109497 1.75861400 6 6.35951591398382 1.5270792862389413 0.0046331435693743196
C -1.42982990 2.06879403 5.27584200 6 -6.36072652781025 -1.5270345439267494 -0.00478485600726592
C -0.14989077 1.37883172 1.75861400 6 -6.365297957845567 -1.526230210866199 0.00099975925173312
C 1.12210877 0.69105728 5.27584200 6 6.366499828921339 1.5261828971567546 -0.00084753253439104
4
energy=-25.053318936168083 config_type=Crystalline_Bulk dft_virial = "0.016674698813327254 0.0008302598776367948 2.267269162055603e-06 0.0008302598776367948 0.013864309624642369 -1.159137692947287e-05 2.267269162055603e-06 -1.159137692947287e-05 0.004617836604724861" Lattice="2.37130000 0.00000000 0.00000000 -1.22067800 2.11427800 0.00000000 0.00000000 0.41258300 6.47313100" Properties=species:S:1:pos:R:3:Z:I:1:force:R:3
C 0.00000000 0.10314575 1.61828275 6 0.8694038108610534 1.290523081724953 0.0001877119994252
C 0.00000000 0.30943725 4.85484825 6 -0.8699468899607603 -1.291224044615957 -0.0008485610932920001
C -0.02335320 1.51266512 1.61828275 6 -0.8672628655087052 -1.2875022042328332 0.0
C 1.17397398 1.01419799 4.85484825 6 0.8678152016385207 1.2882098527566939 0.00065982053496584
8
energy=-56.949901208531166 config_type=Crystalline_Bulk dft_virial = "0.03213235946529385 -0.013688006331241547 1.1672260876750962e-06 -0.013688006331241547 0.05284738499667134 -6.01214794028876e-06 1.1672260876750962e-06 -6.01214794028876e-06 0.04399948408127961" Lattice="3.42623900 0.00000000 0.00000000 0.20019500 3.25254800 0.00000000 0.00000000 0.00000000 3.32103800" Properties=species:S:1:pos:R:3:Z:I:1:force:R:3
C 0.00000000 0.00000000 0.00000000 6 0.017043220988907197 -0.01135940450220224 1.7673043603526541
C 0.90660850 0.81313700 0.83025950 6 0.0178634967124228 -0.00025559688688855996 -1.7157936163131269
C 1.81321700 1.62627400 0.00000000 6 -0.025217692854286797 0.01381148892209088 1.7100794573388436
C 2.71982550 2.43941100 0.83025950 6 -0.013923601842295519 -0.009799594928896399 -1.720755384451358
C 1.71311950 0.00000000 1.66051900 6 -0.005170565595125919 -0.008984461999885599 1.7150679680084997
C 2.61972800 0.81313700 2.49077850 6 0.01457416534715272 0.0234537143391404 -1.6898039900036694
C 0.10009750 1.62627400 1.66051900 6 -0.00438783227149536 -0.00863938048861352 1.6852510740285702
C 1.00670600 2.43941100 2.49077850 6 -0.00081153297285744 0.0017588357206415998 -1.751322097870087
4
energy=-25.48675409557791 config_type=Crystalline_Bulk dft_virial = "-0.00884925662233379 0.00016499979938149184 2.5793090429190498e-05 0.00016499979938149184 -0.011747280839816162 3.965858242376101e-05 2.5793090429190498e-05 3.965858242376101e-05 0.0034526652418737144" Lattice="2.58047500 0.00000000 0.00000000 -1.24428300 2.29768900 0.00000000 0.00000000 0.00000000 6.82330800" Properties=species:S:1:pos:R:3:Z:I:1:force:R:3
C -1.23435055 2.29492488 1.71877764 6 1.294683602479336 2.0496910923756184 -0.71478415123589
C -1.21382125 2.29300631 5.11280021 6 -1.1415661531290247 -0.9639237453442231 -0.13372859978776488
C 0.06221997 1.54714200 1.69643813 6 -1.3275152025979793 -2.056875576298824 0.6931751572856214
C 1.31640701 0.75662899 5.10816718 6 1.1036879287628212 0.9852956564678205 0.15662997799708978
4
energy=-23.719912075757055 config_type=Crystalline_Bulk dft_virial = "0.022810472945251428 -0.0024171536657257276 -2.850736091254646e-05 -0.0024171536657257276 0.01984369890803312 8.666349230988837e-05 -2.850736091254646e-05 8.666349230988837e-05 0.009080751442513657" Lattice="2.33693200 0.00000000 0.00000000 -0.99884900 2.06952300 0.00000000 0.00000000 0.00000000 5.94762700" Properties=species:S:1:pos:R:3:Z:I:1:force:R:3
C -0.98891463 2.06675812 1.49986068 6 -1.6639552762636438 4.597663430085705 -0.9103414836781624
C -0.96838885 2.06483967 4.45603947 6 1.8570430387847112 -2.770840480370099 -0.15025034141388535
C 0.14466347 1.39503027 1.47751545 6 1.6672250650097957 -4.61337672441567 0.848227840208089
C 1.23585645 0.68057299 4.45140627 6 -1.859745063017533 2.8038479640608065 0.2117905632966736
8
energy=-62.384095192090655 config_type=Crystalline_Bulk dft_virial = "0.009730913107703165 -2.1737559443485605e-05 3.851749089166695e-06 -2.1737559443485605e-05 0.02473198696978304 6.911786433934568e-06 3.851749089166695e-06 6.911786433934568e-06 0.01635200649826308" Lattice="3.59725700 0.00000000 0.00000000 0.00000000 3.44868600 0.00000000 0.00000000 0.00000000 3.53220500" Properties=species:S:1:pos:R:3:Z:I:1:force:R:3
C 0.00000000 0.00000000 0.00000000 6 0.0032759600995576 -0.018761428632960882 0.00718242680540368
C 0.89931425 0.86217150 0.88305125 6 -0.01716304810086904 -0.00784430445817144 0.01703910675330336
C 1.79862850 1.72434300 0.00000000 6 0.00354647109051008 -0.0028048801229179202 -0.01264201745169936
C 2.69794275 2.58651450 0.88305125 6 -0.0120444247302416 0.014732049138450078 -0.02008312682069448
C 1.79862850 0.00000000 1.76610250 6 -0.0007405624086912 -0.03693452157457264 -0.00068347738968792
C 2.69794275 0.86217150 2.64915375 6 0.04059259130583688 -0.009337257702914879 0.00692117284455984
C 0.00000000 1.72434300 1.76610250 6 -0.01199762530024792 0.06007658256672216 -0.00625209527948536
C 0.89931425 2.58651450 2.64915375 6 -0.0054760475887110395 0.0009447313505317598 0.00852006765610216
4
energy=-25.473683372991278 config_type=Crystalline_Bulk dft_virial = "-0.003620165819968731 0.002656652813795728 5.443664821468269e-05 0.002656652813795728 -0.008515061504258152 5.1729363596234005e-05 5.443664821468269e-05 5.1729363596234005e-05 0.004796421720638143" Lattice="2.51797900 0.00000000 0.00000000 -1.31765400 2.28224500 0.00000000 0.00000000 0.00000000 6.55201000" Properties=species:S:1:pos:R:3:Z:I:1:force:R:3
C -1.30771997 2.27947892 1.65095582 6 2.9682944754257417 2.727217754542034 -0.7469831876304428
C -1.28719197 2.27756183 4.90932281 6 -2.7309308521744997 -1.5431186337405116 -0.13618839839941072
C -0.00752587 1.53684553 1.62861347 6 -2.9975209765965203 -2.7329072281026945 0.7165707580468574
C 1.25028620 0.75147938 4.90469054 6 2.701318127136411 1.5665615482111919 0.16593586465352533
4
energy=-25.62257842498121 config_type=Crystalline_Bulk dft_virial = "0.00935432574222547 0.002637993397618729 4.041533635225841e-06 0.002637993397618729 0.008472100847396113 3.5601791266009653e-06 4.041533635225841e-06 3.5601791266009653e-06 0.0031163245010839198" Lattice="2.43849900 0.00000000 0.00000000 -1.33621600 2.13418400 0.00000000 -0.37222800 -0.80298500 6.76566300" Properties=species:S:1:pos:R:3:Z:I:1:force:R:3
C -0.09305700 -0.20074625 1.69141575 6 2.3440029362963126 0.8662754489637836 -0.00069787721430136
C -0.27917100 -0.60223875 5.07424725 6 -2.345011438298704 -0.8664276756811257 0.00024685413623039997
C -0.17103592 1.22204379 1.69141575 6 -2.3650796510153347 -0.8635636534214025 -0.00091490314240392
C 0.90109092 0.10915521 5.07424725 6 2.3660845530615724 0.8637199943743484 0.00136489766157392
4
energy=-25.274154863115783 config_type=Crystalline_Bulk dft_virial = "-0.009616857306343726 -0.005402203721687366 -3.706144442857588e-07 -0.005402203721687366 -0.010292268461834581 -1.951227444918631e-06 -3.706144442857588e-07 -1.951227444918631e-06 0.0023831749137907905" Lattice="2.61661000 0.00000000 0.00000000 -1.08240400 2.27345900 0.00000000 0.27863900 0.02463100 7.05691300" Properties=species:S:1:pos:R:3:Z:I:1:force:R:3
C 0.08090573 0.00780146 1.76422825 6 -4.197053109427498 1.0141040484453585 0.00455240169564896
C 1.73193927 2.29028854 5.29268475 6 4.196695685209414 -1.0146466132656151 -0.00492011150274216
C 0.20901321 1.52015413 1.76422825 6 4.198809373750887 -1.0140176494976778 0.00480285578803272
C 1.60383179 0.77793587 5.29268475 6 -4.198478177784777 1.0145617571562857 -0.00443463170148904
4
energy=-20.994222661576714 config_type=Crystalline_Bulk dft_virial = "0.04096997079889858 0.0009250679087074899 4.393903998915567e-05 0.0009250679087074899 0.042370361130761966 8.019657582466126e-06 4.393903998915567e-05 8.019657582466126e-06 0.005471449401204761" Lattice="2.29796100 0.00000000 0.00000000 -1.09901500 1.90355000 0.00000000 0.00000000 0.00000000 6.22709700" Properties=species:S:1:pos:R:3:Z:I:1:force:R:3
C -1.08908113 1.90078414 1.56972661 6 2.322167659387833 0.00435028987161032 -0.9287516594464454
C -1.06855435 1.89886727 4.66563997 6 -1.9359093353541705 2.5181204727275244 -0.17027175470052222
C 0.06489425 1.28438229 1.54738379 6 -2.3649438812404076 -0.006796202938093199 0.8912493733585429
C 1.17648692 0.62524765 4.66100701 6 1.886929874769906 -2.499689725781222 0.20539138409435095
4
energy=-26.00108809776942 config_type=Crystalline_Bulk dft_virial = "0.000323148969616959 2.0314997382235136e-07 3.2090253037804524e-06 2.0314997382235136e-07 0.000324817191955868 -5.936393440543388e-06 3.2090253037804524e-06 -5.936393440543388e-06 0.002705311913129886" Lattice="2.51797900 0.00000000 0.00000000 -1.25898900 2.18063400 0.00000000 0.00000000 0.38704200 6.91540100" Properties=species:S:1:pos:R:3:Z:I:1:force:R:3
C 0.00000000 0.09676050 1.72885025 6 0.00038159535225616 -0.0013612977054205599 0.00337675887185168
C 0.00000000 0.29028150 5.18655075 6 -0.00058010722014144 0.0004865083601540799 -0.00437960380028768
C 0.00000033 1.55051505 1.72885025 6 -0.00036976692489511996 0.00226591525881488 0.00454931601894608
C 1.25899093 1.01715877 5.18655075 6 0.0005749644256366399 -0.00138546883959312 -0.00354492825215864
8
energy=-53.16490449215552 config_type=Crystalline_Bulk dft_virial = "0.04781481902418625 -1.971340079077727e-06 -9.687465075688622e-07 -1.971340079077727e-06 0.06582208880341325 -1.7102163684038588e-06 -9.687465075688622e-07 -1.7102163684038588e-06 0.05917182899893418" Lattice="3.32027300 0.00000000 0.00000000 0.00000000 3.17176600 0.00000000 0.00000000 0.00000000 3.22614800" Properties=species:S:1:pos:R:3:Z:I:1:force:R:3
C 0.00000000 0.00000000 0.00000000 6 0.00554547531452584 -0.06245461074574168 0.03090665213549656
C 0.83006825 0.79294150 0.80653700 6 -0.02564505907763568 0.01281378678815968 -0.0198717579665472
C 1.66013650 1.58588300 0.00000000 6 0.00920714500194344 0.00443771737819192 -0.02276766555220008
C 2.49020475 2.37882450 0.80653700 6 -0.03582779219713968 0.00156032385275632 0.02248892609003992
C 1.66013650 0.00000000 1.61307400 6 -0.0172386471800896 0.02277589402340776 -0.00057033591058232
C 2.49020475 0.79294150 2.41961100 6 0.052829356550557996 -0.000784276161982 0.02236961325752856
C 0.00000000 1.58588300 1.61307400 6 -0.00523999332094072 0.028772906695455038 -0.01401360074612952
C 0.83006825 2.37882450 2.41961100 6 0.01655311267259976 -0.0067524891848023995 -0.0183289196151072
4
energy=-26.050222033134325 config_type=Crystalline_Bulk dft_virial = "0.0004146463708169095 -5.282303781829494e-07 7.499052425799435e-07 -5.282303781829494e-07 0.0004154857241051572 -3.592865712500186e-06 7.499052425799435e-07 -3.592865712500186e-06 0.0021537877905381288" Lattice="2.51797900 0.00000000 0.00000000 -1.25898900 2.18063400 0.00000000 0.34418500 0.19871500 7.05722100" Properties=species:S:1:pos:R:3:Z:I:1:force:R:3
C 0.08604625 0.04967875 1.76430525 6 -2.725681087544e-05 -0.0010290731804104799 0.00491959722329168
C 0.25813875 0.14903625 5.29291575 6 -0.0006145639433236 0.00058987852970056 -0.00554084679947152
C 0.08604532 1.50343548 1.76430525 6 0.00060839258991784 0.0013726118533311199 0.00552438985705616
C 1.51712716 0.87591352 5.29291575 6 4.217091493936e-05 -0.0009308458053687999 -0.004901597442524879
4
energy=-25.78253066422972 config_type=Crystalline_Bulk dft_virial = "0.00027549966700888905 -0.000993064651646116 2.297928161474941e-06 -0.000993064651646116 0.004043475829053448 1.805453510369703e-06 2.297928161474941e-06 1.805453510369703e-06 0.004139462896637743" Lattice="2.54354300 0.00000000 0.00000000 -1.23049900 2.13128700 0.00000000 0.00000000 -0.33815400 6.61593500" Properties=species:S:1:pos:R:3:Z:I:1:force:R:3
C 0.00187588 -0.08191062 1.65398375 6 -0.9251038753041908 -1.7614019750994951 0.00011879855306088
C 1.31116812 1.87504362 4.96195125 6 0.9245355965114105 1.7611602637577697 -0.0007585621894579999
C 0.02563909 1.33369020 1.65398375 6 0.9106258802142778 1.775238149435209 0.00114272893896656
C 1.28740491 0.45944280 4.96195125 6 -0.9100617156571013 -1.7749799811510678 -0.00050450814092088
4
energy=-22.233873731394176 config_type=Crystalline_Bulk dft_virial = "0.03727091404454607 0.0016303480830277659 1.6435816226068212e-06 0.0016303480830277659 0.03568668898185647 -1.6912663181413397e-06 1.6435816226068212e-06 -1.6912663181413397e-06 0.00392960236382576" Lattice="2.26298800 0.00000000 0.00000000 -1.18238900 1.98526600 0.00000000 0.00000000 0.00000000 6.46988500" Properties=species:S:1:pos:R:3:Z:I:1:force:R:3
C 1.07982325 1.98485108 1.61747125 6 2.0958780155437764 1.1331628269081815 0.00021239741304824
C 0.00077575 0.00041492 4.85241375 6 -2.0957365886948947 -1.1351032032748425 -0.00022474011985975997
C -0.03315421 1.32392426 1.61747125 6 -2.1079260402301716 -1.115687611180871 -0.00018308348437087998
C 1.11375321 0.66134174 4.85241375 6 2.1077866704990913 1.1176300446653342 0.00019491191173192
4
energy=-24.064731457044218 config_type=Crystalline_Bulk dft_virial = "0.01712150938986048 0.0018628710184104749 1.787091827738786e-06 0.0018628710184104749 0.03070149843980666 -3.0774462424675937e-06 1.787091827738786e-06 -3.0774462424675937e-06 0.0020764189837343618" Lattice="2.49703400 0.00000000 0.00000000 -1.31593400 1.92587800 0.00000000 0.00000000 0.00000000 6.90017200" Properties=species:S:1:pos:R:3:Z:I:1:force:R:3
C 2.49552595 0.00070872 1.72504300 6 1.4441506962901403 -8.071371692544622 0.00072204834847392
C -1.31442595 1.92516928 5.17512900 6 -1.4434625903853981 8.071093981641361 -8.228471207679999e-05
C -0.04343657 1.28320866 1.72504300 6 -1.4509108996667 8.078641032577156 -0.0007395338497902399
C 1.22453657 0.64266934 5.17512900 6 1.4502171366880023 -8.078348921849285 9.874165449215998e-05
4
energy=-24.304865220217575 config_type=Crystalline_Bulk dft_virial = "0.020422442912399395 -1.0850102508975639e-06 2.3820579050840737e-07 -1.0850102508975639e-06 0.020421629599465287 -3.8082628590527664e-06 2.3820579050840737e-07 -3.8082628590527664e-06 0.006744076276850019" Lattice="2.37130000 0.00000000 0.00000000 -1.18565000 2.05360600 0.00000000 0.00000000 0.00000000 6.18351900" Properties=species:S:1:pos:R:3:Z:I:1:force:R:3
C 0.00000000 0.00000000 1.54587975 6 0.00240477071044448 -0.00966485371287064 0.0035680708274302402
C 0.00000000 0.00000000 4.63763925 6 0.00036050989478647995 0.00047982272729784 -0.00075496223330464
C -0.00000119 1.36907135 1.54587975 6 0.00103987304887056 6.68563285624e-06 0.0006089068693683199
C 1.18565119 0.68453465 4.63763925 6 -0.00025868256359144 -0.00038416674950855995 0.00074210524704264
4
energy=-25.48348837001627 config_type=Crystalline_Bulk dft_virial = "0.005191419425318571 0.0030920378289261237 5.476732302172217e-05 0.0030920378289261237 -0.000214452646398355 5.643623896256261e-05 5.476732302172217e-05 5.643623896256261e-05 0.00532216596920594" Lattice="2.44463900 0.00000000 0.00000000 -1.27922800 2.21568900 0.00000000 0.44178200 0.25506300 6.42956100" Properties=species:S:1:pos:R:3:Z:I:1:force:R:3
C -1.15884848 2.27668948 1.62034582 6 3.568707505389934 3.3671958454700044 -0.7922834930259736
C -0.91742960 2.40230272 4.81749003 6 -3.292400070751094 -1.9792044651722798 -0.1465382723403207
C 0.10409120 1.55624041 1.59800309 6 -3.5679222006690514 -3.367870580109034 0.7601955409927245
C 1.54553860 0.92059172 4.81285432 6 3.2958004864776678 1.9944065657284686 0.1753559213479675
4
energy=-23.492031415767467 config_type=Crystalline_Bulk dft_virial = "0.021756132566112824 0.003231479410199161 9.934993503663429e-07 0.003231479410199161 0.03318016496263642 -3.8798917848862215e-06 9.934993503663429e-07 -3.8798917848862215e-06 0.003248179728618796" Lattice="2.44463900 0.00000000 0.00000000 -1.34145400 1.92838800 0.00000000 0.00000000 0.00000000 6.62457100" Properties=species:S:1:pos:R:3:Z:I:1:force:R:3
C 2.44285495 0.00147522 1.65614275 6 2.8006234319062973 -6.358409184606387 0.00065776341716392
C -1.33966995 1.92691278 4.96842825 6 -2.8005843466680607 6.358312500069697 -0.00039239522071623996
C -0.07763887 1.28411550 1.65614275 6 -2.7868263428088196 6.3450008907734725 -0.0007138198772662399
C 1.18082387 0.64427250 4.96842825 6 2.7867985717184935 -6.344909349031287 0.00044742312191759995
4
energy=-21.339172520270782 config_type=Crystalline_Bulk dft_virial = "0.040463327294691515 0.000983796092815484 6.263051814193972e-07 0.000983796092815484 0.037145431460111344 -6.605606459309176e-06 6.263051814193972e-07 -6.605606459309176e-06 0.007275303775203922" Lattice="2.22651600 0.00000000 0.00000000 -1.14898000 1.99009300 0.00000000 0.00000000 0.06730900 6.04531900" Properties=species:S:1:pos:R:3:Z:I:1:force:R:3
C 0.00000000 0.01682725 1.51132975 6 1.4051076289685998 2.1256223961211886 -0.000295710684026
C 0.00000000 0.05048175 4.53398925 6 -1.4046653486411869 -2.126443700403605 -0.00023759710612176
C -0.02381579 1.34355658 1.51132975 6 -1.4062282438911955 -2.127517515896207 0.00059347848585392
C 1.10135179 0.71384542 4.53398925 6 1.405778763651476 2.128331620266317 -6.017069570616e-05
8
energy=-59.41293732272543 config_type=Crystalline_Bulk dft_virial = "0.04180175002131056 -0.0026731842071976565 -9.629193515534601e-07 -0.0026731842071976565 0.03507310219481838 2.8823834825583257e-06 -9.629193515534601e-07 2.8823834825583257e-06 0.02497054635779322" Lattice="3.32027300 0.00000000 0.00000000 0.03926000 3.38195300 0.00000000 0.00000000 0.00000000 3.47302800" Properties=species:S:1:pos:R:3:Z:I:1:force:R:3
C 0.00000000 0.00000000 0.00000000 6 -0.0177272126580456 0.01616688880528928 0.26951791733360314
C 0.83988325 0.84548825 0.86825700 6 -0.025464546990517197 0.01479479123140864 -0.2528773771544217
C 1.67976650 1.69097650 0.00000000 6 0.01166951501084168 -0.01801469487086392 0.2434912629037113
C 2.51964975 2.53646475 0.86825700 6 0.01667088266675968 -0.01312081162009624 -0.2740559192046386
C 1.66013650 0.00000000 1.73651400 6 0.00755630796590264 -0.013830002982308161 0.24366097512236964
C 2.50001975 0.84548825 2.60477100 6 0.013537377974985039 -0.031075335795253997 -0.28207610723487425
C 0.01963000 1.69097650 1.73651400 6 0.00282545130093712 0.020841174730702 0.2874312991527225
C 0.85951325 2.53646475 2.60477100 6 -0.00901737588471632 0.02425804739969112 -0.23512753620055502
4
energy=-23.50183240822132 config_type=Crystalline_Bulk dft_virial = "0.029316952268821587 0.0009298556928661093 2.0049769825491844e-06 0.0009298556928661093 0.026277313147066425 -8.057693078873208e-06 2.0049769825491844e-06 -8.057693078873208e-06 0.005315411217120305" Lattice="2.29796100 0.00000000 0.00000000 -1.17840000 2.04104900 0.00000000 0.00000000 0.20263800 6.31852300" Properties=species:S:1:pos:R:3:Z:I:1:force:R:3
C 1.11900717 2.09067369 1.57963075 6 1.1108142991081225 1.7459591917604818 0.00040833788368111997
C 0.00055383 0.15301331 4.73889225 6 -1.1108477272724038 -1.7476933420675003 -0.00070867708276144
C -0.01905915 1.41239228 1.57963075 6 -1.1256481755777676 -1.7230542135950033 -0.0005219936422372
C 1.13862133 0.83129267 4.73889225 6 1.1256744038297422 1.7247857925047694 0.00082233284131752
4
energy=-25.9327298558444 config_type=Crystalline_Bulk dft_virial = "-0.002837978555778646 7.053085873767425e-05 3.399735940125454e-06 7.053085873767425e-05 -0.0030787927266707985 -3.361550645594953e-06 3.399735940125454e-06 -3.361550645594953e-06 0.0032259251091527634" Lattice="2.54207600 0.00000000 0.00000000 -1.27461400 2.20769700 0.00000000 0.00000000 0.00000000 6.82330800" Properties=species:S:1:pos:R:3:Z:I:1:force:R:3
C 0.00000000 0.00000000 1.70582700 6 0.04859837951145904 0.08089050048654871 -0.00080176166329832
C 0.00000000 0.00000000 5.11748100 6 -0.04919442939456536 -0.0813152953126452 -0.0008387897837328801
C -0.00238527 1.47179874 1.70582700 6 -0.04862872199903736 -0.08093369996038903 0.0008089615756050399
C 1.26984727 0.73589826 5.11748100 6 0.04922991467664848 0.08136260902208936 0.00083107559197568
4
energy=-25.374642813598452 config_type=Crystalline_Bulk dft_virial = "0.011556584305644829 -0.0005303001555763541 2.4951479613083974e-06 -0.0005303001555763541 0.013468803224116725 -9.08613090330579e-06 2.4951479613083974e-06 -9.08613090330579e-06 0.0038395490511637068" Lattice="2.44463900 0.00000000 0.00000000 -1.20281600 2.08333900 0.00000000 0.00000000 0.41688400 6.61144100" Properties=species:S:1:pos:R:3:Z:I:1:force:R:3
C 0.00063651 0.10523142 1.65286025 6 -0.5357485604197381 -0.9808862244594049 -0.00052405076003912
C 1.24118649 2.39499158 4.95858075 6 0.5354564496918655 0.9798741225008603 9.462741888832e-05
C 0.01236581 1.49210186 1.65286025 6 0.5323183164850365 0.9743841893669862 0.00052662215729152
C 1.22945719 1.00812114 4.95858075 6 -0.5320030631818923 -0.9733587161427292 -0.0001002844928436
4
energy=-25.473945697011857 config_type=Crystalline_Bulk dft_virial = "-0.011373106874260729 -0.00035669715143372277 1.7088459807740174e-06 -0.00035669715143372277 -0.010126539447974498 -5.728433351483468e-06 1.7088459807740174e-06 -5.728433351483468e-06 0.004026631851354701" Lattice="2.63952300 0.00000000 0.00000000 -1.29995100 2.25158300 0.00000000 0.00000000 0.10909000 6.71921400" Properties=species:S:1:pos:R:3:Z:I:1:force:R:3
C 0.00000000 0.02727250 1.67980350 6 -0.17402548040957577 -0.3446150598104946 -0.00069993433210328
C 0.00000000 0.08181750 5.03941050 6 0.1740218804534224 0.34450294689029 -8.897034493304e-05
C 0.01320569 1.52832858 1.67980350 6 0.1742121638501 0.345018254899671 0.0006186781789274399
C 1.32636631 0.83234442 5.03941050 6 -0.17421782092405527 -0.3448953421110062 0.00017125505700983998
8
energy=-61.16065608247686 config_type=Crystalline_Bulk dft_virial = "0.02850198641261061 -1.0487484658064378e-05 2.8157783775785587e-06 -1.0487484658064378e-05 0.019615397755762175 0.0023291961513017324 2.8157783775785587e-06 0.0023291961513017324 0.02856046785239769" Lattice="3.42623900 0.00000000 0.00000000 0.00000000 3.51013100 0.00000000 0.00000000 -0.04013300 3.42600400" Properties=species:S:1:pos:R:3:Z:I:1:force:R:3
C 0.00000000 0.00000000 0.00000000 6 -0.2383402399277036 -0.06275443566537152 -0.03632201474905096
C 0.85655975 0.86749950 0.85650100 6 0.17029644011414527 -0.00783967594311712 -0.026662818110135603
C 1.71311950 1.75506550 0.00000000 6 -0.18426581282753351 0.0190360538595172 0.00208746028949832
C 2.56967925 2.62256500 0.85650100 6 0.22476120531722968 0.0372955457488096 0.03714074763421512
C 1.71311950 -0.02006650 1.71300200 6 -0.25314274535086945 0.028645365391735997 0.026536819644767996
C 2.56967925 0.84743300 2.56950300 6 0.27945533915522813 -0.0056642738675867195 0.00121267094423184
C 0.00000000 1.73499900 1.71300200 6 -0.244937416718461 0.02547431830007632 0.0036981835284016795
C 0.85655975 2.60249850 2.56950300 6 0.24617014456126157 -0.034168726689891196 -0.0077219059489571995
8
energy=-63.23317169548597 config_type=Crystalline_Bulk dft_virial = "0.004843110897578962 -3.050970354390633e-07 1.8563744264201894e-07 -3.050970354390633e-07 -0.0041199700946450354 0.010166593642728056 1.8563744264201894e-07 0.010166593642728056 -0.0031797608114325884" Lattice="3.63817100 0.00000000 0.00000000 0.00000000 3.74187700 0.00000000 0.00000000 -0.25341500 3.73811700" Properties=species:S:1:pos:R:3:Z:I:1:force:R:3
C 3.63551877 0.00000000 0.00000000 6 -0.2312040982728431 0.00797236004134096 -0.00366012684906616
C 0.91219498 0.87211550 0.93452925 6 0.2331300748148907 -0.0044536600411568 0.00513456603359232
C 1.81643327 1.87093850 0.00000000 6 -0.23752304988089087 -0.0068836304446747995 0.00345801502502752
C 2.73128048 2.74305400 0.93452925 6 0.23509616515407575 0.00407926460120736 -0.00494119696021184
C 1.81643327 -0.12670750 1.86905850 6 -0.23695991388261525 -0.0035737279013855197 0.00467325736651176
C 2.73128048 0.74540800 2.80358775 6 0.2352777058000952 0.00478434172781544 -0.00459148693388544
C 3.63551877 1.74423100 1.86905850 6 -0.23097010112287472 0.00328161717351288 -0.00505845267492128
C 0.91219498 2.61634650 2.80358775 6 0.2331532173901623 -0.0052070794361099995 0.00498645355185408
4
energy=-24.78604453716497 config_type=Crystalline_Bulk dft_virial = "0.019941780910118046 0.0014243096133437125 5.0290511501411134e-05 0.0014243096133437125 0.019172214628149133 3.863113744700317e-05 5.0290511501411134e-05 3.863113744700317e-05 0.0029887599014499057" Lattice="2.39852300 0.00000000 0.00000000 -1.18096500 2.04549200 0.00000000 0.00000000 -0.12869200 6.73021400" Properties=species:S:1:pos:R:3:Z:I:1:force:R:3
C -1.17103005 2.01055327 1.69550916 6 2.612494351846758 1.7479797957214174 -0.8475489913334553
C -1.15050447 1.94429044 5.04297627 6 -2.3149852325824294 0.12206268473307655 -0.16281367410966127
C 0.04378159 1.34683791 1.67316485 6 -2.6070681893647434 -1.725851379526164 0.8279060877223717
C 1.21621190 0.57604301 5.03834588 6 2.3039760523860036 -0.12342038248234376 0.18141516183352288
4
energy=-25.800812208149747 config_type=Crystalline_Bulk dft_virial = "-0.0017092514025101341 -0.0024644472013574037 2.921879063558876e-07 -0.0024644472013574037 -0.0011012029878569066 3.428722231360273e-05 2.921879063558876e-07 3.428722231360273e-05 0.0036080229767148668" Lattice="2.54493000 0.00000000 0.00000000 -1.10873200 2.17857600 0.00000000 0.01790000 0.34544200 6.72861600" Properties=species:S:1:pos:R:3:Z:I:1:force:R:3
C -1.09432233 2.26217022 1.69510659 6 -0.13746998279000688 2.023312670801598 -0.7658495292713016
C -1.06484566 2.43297496 5.04177888 6 0.26553790866633836 -0.7010055761986298 -0.1441391587038315
C 0.14521338 1.55409287 1.67276758 6 0.11796182039494903 -2.002128471677426 0.7416501097289652
C 1.35131834 0.97600413 5.03714960 6 -0.2848095025141754 0.6758578253496083 0.16802846773752847
4
energy=-25.855564495123613 config_type=Crystalline_Bulk dft_virial = "0.0035347426073579287 -0.0005944821630970293 2.34869739808081e-05 -0.0005944821630970293 0.004452290196496186 2.4544254059113724e-05 2.34869739808081e-05 2.4544254059113724e-05 0.0029844725882151777" Lattice="2.51797900 0.00000000 0.00000000 -1.17799800 2.12748000 0.00000000 -0.00764800 0.09107600 6.82269600" Properties=species:S:1:pos:R:3:Z:I:1:force:R:3
C -1.16997579 2.14748390 1.71863030 6 1.123301004165777 1.208766534643796 -0.7909216810411026
C -1.15327345 2.19110364 5.11234163 6 -0.9271877356375356 0.27765690391689957 -0.15107473137300478
C 0.08366567 1.45643755 1.69628597 6 -1.1386172747599723 -1.1907292114771106 0.7704127308354106
C 1.29110162 0.76819806 5.10770902 6 0.9141826368937974 -0.29863744837868167 0.17132859897125863
4
energy=-25.390368220432183 config_type=Crystalline_Bulk dft_virial = "0.009436495189936795 -1.4009736235776414e-07 1.43999599898139e-06 -1.4009736235776414e-07 0.00943526462846194 9.363949180526319e-06 1.43999599898139e-06 9.363949180526319e-06 0.005561809777060523" Lattice="2.44463900 0.00000000 0.00000000 -1.22231900 2.11712000 0.00000000 0.00000000 -0.47077600 6.37076200" Properties=species:S:1:pos:R:3:Z:I:1:force:R:3
C 0.00000000 -0.11769400 1.59269050 6 0.00010799868460079999 -0.00084393257823768 -0.0004921654341093599
C 0.00000000 -0.35308200 4.77807150 6 -0.000591421368052 3.8570958786e-05 -0.0008110186934069599
C -0.00000089 1.29372004 1.59269050 6 0.00032862456885672 0.00040525220697824004 0.00058576429409672
C 1.22232089 0.35262396 4.77807150 6 0.00018668344052423999 0.00037079548379607996 0.0007133055978157599
4
energy=-25.77276332083436 config_type=Crystalline_Bulk dft_virial = "-0.008285333591471053 -0.0012449562540536728 2.103289370551699e-06 -0.0012449562540536728 -0.003348991487403739 -5.58166385731207e-06 2.103289370551699e-06 -5.58166385731207e-06 0.002938028787247186" Lattice="2.63121600 0.00000000 0.00000000 -1.25898900 2.18063400 0.00000000 0.00000000 0.40119100 6.90145500" Properties=species:S:1:pos:R:3:Z:I:1:force:R:3
C 0.00341496 0.10464157 1.72536375 6 -1.092119726803724 -2.0878048567301417 0.00359789903555808
C 1.36881204 2.47718343 5.17609125 6 1.0916702465640045 2.087721029179713 -0.00320756093264376
C 0.03433237 1.54971065 1.72536375 6 1.0926813199636483 2.089387808878719 0.00371361191191608
C 1.33789726 1.03211435 5.17609125 6 -1.092239553915686 -2.089296781415984 -0.004103435735379919
4
energy=-25.632861605787767 config_type=Crystalline_Bulk dft_virial = "0.007616904422969941 0.0005936870242334602 -8.045053422832283e-06 0.0005936870242334602 0.005651098916154078 -8.739789556526171e-06 -8.045053422832283e-06 -8.739789556526171e-06 0.004595501801540035" Lattice="2.44463900 0.00000000 0.00000000 -1.24389500 2.15449000 0.00000000 0.51185300 0.29551800 6.52050400" Properties=species:S:1:pos:R:3:Z:I:1:force:R:3
C 1.32800821 2.22701433 1.63012600 6 0.5846879072068654 0.9596223120204084 0.00036513840984079996
C 0.38458879 0.22299367 4.89037800 6 -0.5848694478528847 -0.9606328711406016 -0.00123272784280056
C 0.11427984 1.51156206 1.63012600 6 -0.5797647100274202 -0.9516684660392847 -0.00023811138557223999
C 1.59831716 0.93844594 4.89037800 6 0.5799673361309094 0.9526785108800274 0.00110158658292816
8
energy=-53.89175296945018 config_type=Crystalline_Bulk dft_virial = "0.046691915462578525 -0.01274137818099768 -0.015912199143861522 -0.01274137818099768 0.06278782843931276 0.012066193407688504 -0.015912199143861522 0.012066193407688504 0.049525234852558914" Lattice="3.32027300 0.00000000 0.00000000 0.15842100 3.19067000 0.00000000 0.20506400 -0.13346000 3.31124600" Properties=species:S:1:pos:R:3:Z:I:1:force:R:3
C 0.00000000 0.00000000 0.00000000 6 -1.6028619632233225 2.3783984602238655 2.1714128098330265
C 0.92093950 0.76430250 0.82781150 6 1.6496187080226126 -2.4384467574208113 -2.0746789023155405