2
energy=11.892761451383208 config_type=cluster dft_virial = "0.11960668899084374 1.756538193886875e-07 3.29684047245e-07 1.756538193886875e-07 7.2072541204875e-06 -1.7386142892946876e-10 3.29684047245e-07 -1.7386142892946876e-10 7.206679227853126e-06" Lattice="20.00000000 0.00000000 0.00000000 0.00000000 15.00000000 0.00000000 0.00000000 0.00000000 15.00000000" Properties=species:S:1:pos:R:3:Z:I:1:force:R:3
C 0.00000000 0.00000000 0.00000000 6 -149.32231077422847 -0.0004448517246652 -0.00083158987142616
C 0.80000000 0.00000000 0.00000000 6 149.33195557104278 0.00043405185620512 0.0008177043262632
2
energy=0.48435927846015464 config_type=cluster dft_virial = "0.07569730592775 2.265539324540625e-07 2.9181646197e-07 2.265539324540625e-07 6.640252417659375e-06 8.603977238353125e-11 2.9181646197e-07 8.603977238353125e-11 6.639498886921876e-06" Lattice="20.00000000 0.00000000 0.00000000 0.00000000 15.00000000 0.00000000 0.00000000 0.00000000 15.00000000" Properties=species:S:1:pos:R:3:Z:I:1:force:R:3
C 0.00000000 0.00000000 0.00000000 6 -84.00439775999435 -0.00050296530256944 -0.0006485063870552799
C 0.90000000 0.00000000 0.00000000 6 84.01364604735234 0.00050193674366848 0.00064747782815432
2
energy=-5.7392881998324 config_type=cluster dft_virial = "0.04385197423321875 -7.4779240377375e-09 2.084760378860625e-07 -7.4779240377375e-09 6.346580487103125e-06 -3.947830464178125e-10 2.084760378860625e-07 -3.947830464178125e-10 6.346033658268751e-06" Lattice="20.00000000 0.00000000 0.00000000 0.00000000 15.00000000 0.00000000 0.00000000 0.00000000 15.00000000" Properties=species:S:1:pos:R:3:Z:I:1:force:R:3
C 0.00000000 0.00000000 0.00000000 6 -43.797511927781876 1.5428383514399998e-05 -0.00041553779598784
C 1.00000000 0.00000000 0.00000000 6 43.80517674871183 -2.108545746968e-05 0.00041090928093352
2
energy=-8.801332291101533 config_type=cluster dft_virial = "0.021499329431446876 1.2910503524624999e-07 1.6812721912950002e-07 1.2910503524624999e-07 6.2428525632000005e-06 -9.617434343578127e-11 1.6812721912950002e-07 -9.617434343578127e-11 6.243311622796875e-06" Lattice="20.00000000 0.00000000 0.00000000 0.00000000 15.00000000 0.00000000 0.00000000 0.00000000 15.00000000" Properties=species:S:1:pos:R:3:Z:I:1:force:R:3
C 0.00000000 0.00000000 0.00000000 6 -19.520191391404566 -0.00024325418007703996 -0.0003162818620452
C 1.10000000 0.00000000 0.00000000 6 19.524553509703537 0.00022628295821120002 0.00029365356622408
2
energy=-9.971208867083998 config_type=cluster dft_virial = "0.00620287494339375 -1.089885997344375e-06 -8.26253008678125e-07 -1.089885997344375e-06 6.2567856074250004e-06 -6.288965810184376e-11 -8.26253008678125e-07 -6.288965810184376e-11 6.258624753009375e-06" Lattice="20.00000000 0.00000000 0.00000000 0.00000000 15.00000000 0.00000000 0.00000000 0.00000000 15.00000000" Properties=species:S:1:pos:R:3:Z:I:1:force:R:3
C 0.00000000 0.00000000 0.00000000 6 -5.162244553617153 0.00180820654788768 0.00135975486706912
C 1.20000000 0.00000000 0.00000000 6 5.16356882320214 -0.0018179778574468 -0.0013921544724493598
2
energy=-10.037594178418699 config_type=cluster dft_virial = "-0.00395401951485 -1.2268544784525001e-06 2.5598366151215627e-08 -1.2268544784525001e-06 6.338580613818749e-06 3.00316647375e-10 2.5598366151215627e-08 3.00316647375e-10 6.34018820214375e-06" Lattice="20.00000000 0.00000000 0.00000000 0.00000000 15.00000000 0.00000000 0.00000000 0.00000000 15.00000000" Properties=species:S:1:pos:R:3:Z:I:1:force:R:3
C 0.00000000 0.00000000 0.00000000 6 3.037894484856453 0.0018904912599644799 -5.039938614703999e-05
C 1.30000000 0.00000000 0.00000000 6 -3.038775959834575 -0.00187609143535104 3.59995615336e-05
2
energy=-9.489918104109893 config_type=cluster dft_virial = "-0.010403941248253125 -5.933123607965625e-07 4.1108952209625e-07 -5.933123607965625e-07 6.483495038062501e-06 -6.90488875305e-11 4.1108952209625e-07 -6.90488875305e-11 6.4842319789031254e-06" Lattice="20.00000000 0.00000000 0.00000000 0.00000000 15.00000000 0.00000000 0.00000000 0.00000000 15.00000000" Properties=species:S:1:pos:R:3:Z:I:1:force:R:3
C 0.00000000 0.00000000 0.00000000 6 7.422053258237034 0.0008485610932920001 -0.00060479263376448
C 1.40000000 0.00000000 0.00000000 6 -7.4231759302774325 -0.0008490753727424799 0.00058782141189864
2
energy=-8.630994823385594 config_type=cluster dft_virial = "-0.014200375901596878 -1.2389430182006251e-06 -8.673756400237499e-07 -1.2389430182006251e-06 6.6942187264125006e-06 -1.416810411545625e-09 -8.673756400237499e-07 -1.416810411545625e-09 6.693914062040625e-06" Lattice="20.00000000 0.00000000 0.00000000 0.00000000 15.00000000 0.00000000 0.00000000 0.00000000 15.00000000" Properties=species:S:1:pos:R:3:Z:I:1:force:R:3
C 0.00000000 0.00000000 0.00000000 6 9.455000440263923 0.0013540977931138399 0.00136849761772728
C 1.50000000 0.00000000 0.00000000 6 -9.455841287165459 -0.0016647225812037598 -0.00114272893896656
2
energy=-7.647716942148706 config_type=cluster dft_virial = "-0.015641703618075 3.821146171003125e-07 8.760421339059375e-08 3.821146171003125e-07 4.17746787215625e-06 4.1424819370874995e-07 8.760421339059375e-08 4.1424819370874995e-07 5.650648839675e-06" Lattice="20.00000000 0.00000000 0.00000000 0.00000000 15.00000000 0.00000000 0.00000000 0.00000000 15.00000000" Properties=species:S:1:pos:R:3:Z:I:1:force:R:3
C 0.00000000 0.00000000 0.00000000 6 9.763869478309905 -0.00121215666478136 -0.00083210415087664
C 1.60000000 0.00000000 0.00000000 6 -9.7652019763661 0.0009755881175605599 0.00025405404853712
2
energy=-6.769229693435331 config_type=cluster dft_virial = "-0.013082827765050003 -1.7423863496325002e-07 1.5744326797125002e-07 -1.7423863496325002e-07 -1.0368893644734376e-06 2.070408746005313e-07 1.5744326797125002e-07 2.070408746005313e-07 5.197951976428125e-08" Lattice="20.00000000 0.00000000 0.00000000 0.00000000 15.00000000 0.00000000 0.00000000 0.00000000 15.00000000" Properties=species:S:1:pos:R:3:Z:I:1:force:R:3
C 0.00000000 0.00000000 0.00000000 6 7.685180224839522 -0.00110775793633392 0.00025148265128472
C 1.70000000 0.00000000 0.00000000 6 -7.686285925658054 0.00073079109913208 0.0021034029524631998
2
energy=-6.117191179768657 config_type=cluster dft_virial = "-0.0098329936712625 2.6665754296134376e-07 -2.16878429622375e-06 2.6665754296134376e-07 7.870658639596875e-07 -1.4370932376056252e-07 -2.16878429622375e-06 -1.4370932376056252e-07 -1.432673450510625e-06" Lattice="20.00000000 0.00000000 0.00000000 0.00000000 15.00000000 0.00000000 0.00000000 0.00000000 15.00000000" Properties=species:S:1:pos:R:3:Z:I:1:force:R:3
C 0.00000000 0.00000000 0.00000000 6 5.447825475307049 -0.0015366669980342398 0.0018483203450251199
C 1.80000000 0.00000000 0.00000000 6 -5.4727099150774245 0.0011802713388515999 -0.00156752376506304
2
energy=-5.575787222311357 config_type=cluster dft_virial = "-0.010367047023834376 1.4975578873434377e-07 1.27990798867125e-07 1.4975578873434377e-07 8.191086258009375e-07 -1.3638255328603125e-07 1.27990798867125e-07 -1.3638255328603125e-07 -1.4627061101109377e-06" Lattice="20.00000000 0.00000000 0.00000000 0.00000000 15.00000000 0.00000000 0.00000000 0.00000000 15.00000000" Properties=species:S:1:pos:R:3:Z:I:1:force:R:3
C 0.00000000 0.00000000 0.00000000 6 5.441101271492023 -0.00021394025139968 -0.00015891235019832
C 1.90000000 0.00000000 0.00000000 6 -5.453549405590891 0.00020159754458815997 0.00016405514470311998
2
energy=-5.03407935003264 config_type=cluster dft_virial = "-0.01073707885344375 2.3783953783978123e-06 -5.116836498159375e-07 2.3783953783978123e-06 7.854487216734374e-07 -1.352868565831875e-07 -5.116836498159375e-07 -1.352868565831875e-07 -1.4789607967884376e-06" Lattice="20.00000000 0.00000000 0.00000000 0.00000000 15.00000000 0.00000000 0.00000000 0.00000000 15.00000000" Properties=species:S:1:pos:R:3:Z:I:1:force:R:3
C 0.00000000 0.00000000 0.00000000 6 5.355555513419729 -0.00241351346110264 0.0004937082724607999
C 2.00000000 0.00000000 0.00000000 6 -5.352874574644377 0.00240271359264256 -0.0004942225519112799
2
energy=-4.507811277961523 config_type=cluster dft_virial = "-0.010830562405875002 -2.3199858606459373e-06 -1.5986177492540624e-07 -2.3199858606459373e-06 7.505054866940626e-07 -1.4229148158843753e-07 -1.5986177492540624e-07 -1.4229148158843753e-07 -1.4897505076875e-06" Lattice="20.00000000 0.00000000 0.00000000 0.00000000 15.00000000 0.00000000 0.00000000 0.00000000 15.00000000" Properties=species:S:1:pos:R:3:Z:I:1:force:R:3
C 0.00000000 0.00000000 0.00000000 6 5.146690171637386 0.00221243019596496 0.00015582667349544
C 2.10000000 0.00000000 0.00000000 6 -5.1339226699997695 -0.00221088735761352 -0.000154283835144
2
energy=-4.006401377720036 config_type=cluster dft_virial = "-0.01072756341410625 3.4107789911906253e-06 -2.7185754819290625e-07 3.4107789911906253e-06 7.13554552096875e-07 -1.58047806249e-07 -2.7185754819290625e-07 -1.58047806249e-07 -1.494119561023125e-06" Lattice="20.00000000 0.00000000 0.00000000 0.00000000 15.00000000 0.00000000 0.00000000 0.00000000 15.00000000" Properties=species:S:1:pos:R:3:Z:I:1:force:R:3
C 0.00000000 0.00000000 0.00000000 6 4.867903910047232 -0.00311241923430496 0.00024222562117607997
C 2.20000000 0.00000000 0.00000000 6 -4.850961487830619 0.00310419076309728 -0.000244282738978
2
energy=-3.535310962241524 config_type=cluster dft_virial = "-0.010473881075521876 -4.25863905165e-06 6.291859412503125e-07 -4.25863905165e-06 6.791220636412501e-07 -1.81758272077125e-07 6.291859412503125e-07 -1.81758272077125e-07 -1.4922080297015625e-06" Lattice="20.00000000 0.00000000 0.00000000 0.00000000 15.00000000 0.00000000 0.00000000 0.00000000 15.00000000" Properties=species:S:1:pos:R:3:Z:I:1:force:R:3
C 0.00000000 0.00000000 0.00000000 6 4.547452270217541 0.0037038406023569602 -0.00054205054080592
C 2.30000000 0.00000000 0.00000000 6 -4.531943144829415 -0.00370435488180744 0.00054359337915736
2
energy=-3.097322207236048 config_type=cluster dft_virial = "-0.01011842511924375 -1.4236717797928127e-06 8.640422008903125e-07 -1.4236717797928127e-06 6.364260394003125e-07 -2.1671992721925003e-07 8.640422008903125e-07 -2.1671992721925003e-07 -1.4884072843696877e-06" Lattice="20.00000000 0.00000000 0.00000000 0.00000000 15.00000000 0.00000000 0.00000000 0.00000000 15.00000000" Properties=species:S:1:pos:R:3:Z:I:1:force:R:3
C 0.00000000 0.00000000 0.00000000 6 4.211300193044145 0.0011854141333564 -0.00071793411287008
C 2.40000000 0.00000000 0.00000000 6 -4.201940307045409 -0.00118747125115832 0.0007184483923205599
2
energy=-2.6933935305489936 config_type=cluster dft_virial = "-0.00967999169705625 -8.292409173871875e-07 1.011087797259375e-06 -8.292409173871875e-07 5.788199511253126e-07 -2.56679645333625e-07 1.011087797259375e-06 -2.56679645333625e-07 -1.4864406891553128e-06" Lattice="20.00000000 0.00000000 0.00000000 0.00000000 15.00000000 0.00000000 0.00000000 0.00000000 15.00000000" Properties=species:S:1:pos:R:3:Z:I:1:force:R:3
C 0.00000000 0.00000000 0.00000000 6 3.8682269430261886 0.00066187765276776 -0.0008084472961545599
C 2.50000000 0.00000000 0.00000000 6 -3.8682207716727834 -0.0006634204911192 0.00080793301670408
2
energy=-2.3233193052636127 config_type=cluster dft_virial = "-0.0091953190342125 2.636189176516875e-06 -2.5172607309918752e-06 2.636189176516875e-06 5.10645998041875e-07 -2.8812682756968747e-07 -2.5172607309918752e-06 -2.8812682756968747e-07 -1.4939168383321876e-06" Lattice="20.00000000 0.00000000 0.00000000 0.00000000 15.00000000 0.00000000 0.00000000 0.00000000 15.00000000" Properties=species:S:1:pos:R:3:Z:I:1:force:R:3
C 0.00000000 0.00000000 0.00000000 6 3.533611532850828 -0.00202728959379216 0.00193214789545336
C 2.60000000 0.00000000 0.00000000 6 -3.542916905227812 0.00202831815269312 -0.0019311193365524
2
energy=-1.9860995753121027 config_type=cluster dft_virial = "-0.0086783647437 -1.3750945205850001e-06 -2.1364686845268753e-07 -1.3750945205850001e-06 4.6512633626718747e-07 -2.9744418466406253e-07 -2.1364686845268753e-07 -2.9744418466406253e-07 -1.5211943429259376e-06" Lattice="20.00000000 0.00000000 0.00000000 0.00000000 15.00000000 0.00000000 0.00000000 0.00000000 15.00000000" Properties=species:S:1:pos:R:3:Z:I:1:force:R:3
C 0.00000000 0.00000000 0.00000000 6 3.2113342009719315 0.0010187875914008798 0.00015788379129735999
C 2.70000000 0.00000000 0.00000000 6 -3.2265769296047084 -0.00101518763524752 -0.00015531239404496
2
energy=-1.6802318208824794 config_type=cluster dft_virial = "-0.008145637026159376 1.2757148597250002e-06 4.2503058811687504e-07 1.2757148597250002e-06 3.4545160053562504e-07 -3.2985053508937504e-07 4.2503058811687504e-07 -3.2985053508937504e-07 -1.5080570654821877e-06" Lattice="20.00000000 0.00000000 0.00000000 0.00000000 15.00000000 0.00000000 0.00000000 0.00000000 15.00000000" Properties=species:S:1:pos:R:3:Z:I:1:force:R:3
C 0.00000000 0.00000000 0.00000000 6 2.906575798573637 -0.0009133603040524799 -0.00030496771413464
C 2.80000000 0.00000000 0.00000000 6 -2.923318680363464 0.0009154174218543999 0.00030651055248607996
2
energy=-1.4038393593211067 config_type=cluster dft_virial = "-0.007614766916803125 2.7118950965015628e-06 -6.076695974962501e-07 2.7118950965015628e-06 2.424954648287813e-07 -3.417150552665625e-07 -6.076695974962501e-07 -3.417150552665625e-07 -1.4863708334390625e-06" Lattice="20.00000000 0.00000000 0.00000000 0.00000000 15.00000000 0.00000000 0.00000000 0.00000000 15.00000000" Properties=species:S:1:pos:R:3:Z:I:1:force:R:3
C 0.00000000 0.00000000 0.00000000 6 2.623640844656461 -0.00187300575864816 0.00041502351653736
C 2.90000000 0.00000000 0.00000000 6 -2.6376534168436896 0.0018766057148015198 -0.00041039500148303996
2
energy=-1.154857260620091 config_type=cluster dft_virial = "-0.007093209433753124 3.6081786352500002e-06 -2.496845987631562e-06 3.6081786352500002e-06 1.3192801257684376e-07 -3.480408667490625e-07 -2.496845987631562e-06 -3.480408667490625e-07 -1.4379551713406251e-06" Lattice="20.00000000 0.00000000 0.00000000 0.00000000 15.00000000 0.00000000 0.00000000 0.00000000 15.00000000" Properties=species:S:1:pos:R:3:Z:I:1:force:R:3
C 0.00000000 0.00000000 0.00000000 6 2.363929722164061 -0.0024016850337415995 0.00166317974285232
C 3.00000000 0.00000000 0.00000000 6 -2.370931122602896 0.0024068278282463997 -0.0016585512277979997
2
energy=-0.9310373366243203 config_type=cluster dft_virial = "-0.006581035587600001 1.4928330230859374e-06 -1.1372792345325e-06 1.4928330230859374e-06 6.623913494390626e-08 -3.49288654545e-07 -1.1372792345325e-06 -3.49288654545e-07 -1.4060610849515626e-06" Lattice="20.00000000 0.00000000 0.00000000 0.00000000 15.00000000 0.00000000 0.00000000 0.00000000 15.00000000" Properties=species:S:1:pos:R:3:Z:I:1:force:R:3
C 0.00000000 0.00000000 0.00000000 6 2.126801638901139 -0.0009745595586596 0.00076267642506184
C 3.10000000 0.00000000 0.00000000 6 -2.1224230636597525 0.00096633108745192 -0.00073079109913208
2
energy=-0.730089634679392 config_type=cluster dft_virial = "-0.006098932638478125 2.21529308079375e-06 -1.6798115688328126e-07 2.21529308079375e-06 -1.2385545752334376e-08 -3.555936663553125e-07 -1.6798115688328126e-07 -3.555936663553125e-07 -1.341195721835625e-06" Lattice="20.00000000 0.00000000 0.00000000 0.00000000 15.00000000 0.00000000 0.00000000 0.00000000 15.00000000" Properties=species:S:1:pos:R:3:Z:I:1:force:R:3
C 0.00000000 0.00000000 0.00000000 6 1.9191247969288547 -0.0013808403245387998 0.00020725461854344002
C 3.20000000 0.00000000 0.00000000 6 -1.8980475679303825 0.00139009735464744 -9.925593394264e-05
2
energy=-0.5498327448145663 config_type=cluster dft_virial = "-0.005636313784378125 4.9770711921375e-06 1.3104006271481251e-06 4.9770711921375e-06 -3.1752926356500004e-08 -3.634220823328125e-07 1.3104006271481251e-06 -3.634220823328125e-07 -1.3139264212396877e-06" Lattice="20.00000000 0.00000000 0.00000000 0.00000000 15.00000000 0.00000000 0.00000000 0.00000000 15.00000000" Properties=species:S:1:pos:R:3:Z:I:1:force:R:3
C 0.00000000 0.00000000 0.00000000 6 1.722506505980242 -0.00309236233573624 -0.0004957653902627199
C 3.30000000 0.00000000 0.00000000 6 -1.6942874782529542 0.0030234488893719196 0.0008007331043973599
2
energy=-0.38842060326890293 config_type=cluster dft_virial = "-0.005198247863803126 4.022493733968751e-06 4.542829963987501e-06 4.022493733968751e-06 -8.512254085218751e-09 -3.718074268546875e-07 4.542829963987501e-06 -3.718074268546875e-07 -1.3089858472068752e-06" Lattice="20.00000000 0.00000000 0.00000000 0.00000000 15.00000000 0.00000000 0.00000000 0.00000000 15.00000000" Properties=species:S:1:pos:R:3:Z:I:1:force:R:3
C 0.00000000 0.00000000 0.00000000 6 1.5278867049761948 -0.00236979970781184 -0.00268505301095608
C 3.40000000 0.00000000 0.00000000 6 -1.5118956997429698 0.00237905673792048 0.00267888165755032
2
energy=-0.24404596179136082 config_type=cluster dft_virial = "-0.004781980104271875 7.400951159653126e-06 1.9338469293234377e-06 7.400951159653126e-06 -3.0727924488843755e-08 -3.8596003458468753e-07 1.9338469293234377e-06 -3.8596003458468753e-07 -1.2481457531568752e-06" Lattice="20.00000000 0.00000000 0.00000000 0.00000000 15.00000000 0.00000000 0.00000000 0.00000000 15.00000000" Properties=species:S:1:pos:R:3:Z:I:1:force:R:3
C 0.00000000 0.00000000 0.00000000 6 1.3460236057413038 -0.00475759919639048 -0.0009107889068000801
C 3.50000000 0.00000000 0.00000000 6 -1.3499156726225365 0.00423869123085616 0.00112164348149688
2
energy=-0.11510529316424341 config_type=cluster dft_virial = "-0.004387649259628126 1.0165360301550001e-07 5.40227828086875e-06 1.0165360301550001e-07 -1.16892512573625e-07 -4.029368137115625e-07 5.40227828086875e-06 -4.029368137115625e-07 -1.1268582437896875e-06" Lattice="20.00000000 0.00000000 0.00000000 0.00000000 15.00000000 0.00000000 0.00000000 0.00000000 15.00000000" Properties=species:S:1:pos:R:3:Z:I:1:force:R:3
C 0.00000000 0.00000000 0.00000000 6 1.1981569495803934 0.00015891235019832 -0.0034271582579987196
C 3.60000000 0.00000000 0.00000000 6 -1.2068472437346045 6.737060801288e-05 0.0030111061825604
2
energy=-2.3382627831843172e-06 config_type=cluster dft_virial = "-0.0040171186135406255 -3.665369537268751e-06 6.123584594446875e-06 -3.665369537268751e-06 -1.6140722385853126e-07 -4.1190218308125e-07 6.123584594446875e-06 -4.1190218308125e-07 -1.0591071648946875e-06" Lattice="20.00000000 0.00000000 0.00000000 0.00000000 15.00000000 0.00000000 0.00000000 0.00000000 15.00000000" Properties=species:S:1:pos:R:3:Z:I:1:force:R:3
C 0.00000000 0.00000000 0.00000000 6 1.069355146928227 0.0022602581848595996 -0.0036359557148936
C 3.70000000 0.00000000 0.00000000 6 -1.0817842526874275 -0.00197637592819464 0.00331247394054168
2
energy=80.94098596524479 config_type=cluster dft_virial = "0.3646919037948323 2.8742835377748713e-06 -2.5963757205669677e-06 2.8742835377748713e-06 0.0003887453192711012 -5.105087774868731e-10 -2.5963757205669677e-06 -5.105087774868731e-10 0.000388716280730127" Lattice="21.0 0.0 0.0 0.0 21.0 0.0 0.0 0.0 21.0" Properties=species:S:1:pos:R:3:Z:I:1:force:R:3
Cu 0.0 0.0 0.0 29 -364.20029160972194 -0.00569461635516504 0.00501011040657616
Cu 0.999999 0.0 0.0 29 364.14200934815796 0.0056930735168136 -0.005013196083279039
2
energy=51.600368314678306 config_type=cluster dft_virial = "0.2568592259016092 -4.1400066048175013e-08 -2.4582366819526952e-06 -4.1400066048175013e-08 0.00040911203929742214 -5.18503497480238e-10 -2.4582366819526952e-06 -5.18503497480238e-10 0.0004091124135373262" Lattice="21.0 0.0 0.0 0.0 21.0 0.0 0.0 0.0 21.0" Properties=species:S:1:pos:R:3:Z:I:1:force:R:3
Cu 0.0 0.0 0.0 29 -233.05867842733946 9.154174218543999e-05 0.00441200340566792
Cu 1.100001 0.0 0.0 29 233.2938831054576 -9.205602163592e-05 -0.00441714620017272
2
energy=32.693074817669036 config_type=cluster dft_virial = "0.18204595461964015 1.8141596115799277e-07 1.6764517933543407e-06 1.8141596115799277e-07 0.0004243059214134734 7.050452658987937e-10 1.6764517933543407e-06 7.050452658987937e-10 0.00042433145021430064" Lattice="21.0 0.0 0.0 0.0 21.0 0.0 0.0 0.0 21.0" Properties=species:S:1:pos:R:3:Z:I:1:force:R:3
Cu 0.0 0.0 0.0 29 -151.38600672459958 -0.00029725352237743995 -0.00279459453390832
Cu 1.2000009 0.0 0.0 29 151.38524199105672 0.00029776780182792 0.00279665165171024
2
energy=20.348509088591314 config_type=cluster dft_virial = "0.12908409375739502 5.133315732839595e-08 2.2485910912445925e-07 5.133315732839595e-08 0.0004339300009721001 -3.5431223634606323e-09 2.2485910912445925e-07 -3.5431223634606323e-09 0.0004339205169128117" Lattice="21.0 0.0 0.0 0.0 21.0 0.0 0.0 0.0 21.0" Properties=species:S:1:pos:R:3:Z:I:1:force:R:3
Cu 0.0 0.0 0.0 29 -99.03754723111147 -7.559907922056e-05 -0.00033993871676728
Cu 1.3000008 0.0 0.0 29 99.07716320574085 7.662763812151999e-05 0.00035125286467784
2
energy=12.288018489300782 config_type=cluster dft_virial = "0.09099171761986688 1.163524050798047e-08 2.568677344129457e-07 1.163524050798047e-08 0.0004348035678523596 -3.335334830815444e-09 2.568677344129457e-07 -3.335334830815444e-09 0.0004347979757346881" Lattice="21.0 0.0 0.0 0.0 21.0 0.0 0.0 0.0 21.0" Properties=species:S:1:pos:R:3:Z:I:1:force:R:3
Cu 0.0 0.0 0.0 29 -64.74164797586721 -1.439982461344e-05 -0.00036822408654368
Cu 1.4000007 0.0 0.0 29 64.74166237569183 1.594266296488e-05 0.00036102417423696
2
energy=6.995781227371523 config_type=cluster dft_virial = "0.06375743826921787 -9.970064956528031e-09 1.5923745833168643e-07 -9.970064956528031e-09 0.0004324027131731633 1.8850840064536333e-10 1.5923745833168643e-07 1.8850840064536333e-10 0.00043240740236069906" Lattice="21.0 0.0 0.0 0.0 21.0 0.0 0.0 0.0 21.0" Properties=species:S:1:pos:R:3:Z:I:1:force:R:3
Cu 0.0 0.0 0.0 29 -42.31905776358582 1.439982461344e-05 -0.00020931173634536
Cu 1.5000006 0.0 0.0 29 42.28066834544583 -1.388554516296e-05 0.00021291169249872
2
energy=3.5680630892410874 config_type=cluster dft_virial = "0.0440516317016542 -2.376309673826038e-08 2.207468262445071e-07 -2.376309673826038e-08 0.00042943744976560314 1.1941678247030045e-09 2.207468262445071e-07 1.1941678247030045e-09 0.00042944171628804474" Lattice="21.0 0.0 0.0 0.0 21.0 0.0 0.0 0.0 21.0" Properties=species:S:1:pos:R:3:Z:I:1:force:R:3
Cu 0.0 0.0 0.0 29 -27.35199834464989 3.188532592976e-05 -0.00027153954985344
Cu 1.6000005 0.0 0.0 29 27.356778057862652 -3.137104647928e-05 0.00027411094710584
2
energy=1.3495952128647197 config_type=cluster dft_virial = "0.02987874781779313 -8.85119607001153e-09 1.671807114682307e-07 -8.85119607001153e-09 0.0004262498140170769 1.3163465139548064e-09 1.671807114682307e-07 1.3163465139548064e-09 0.00042624805107633137" Lattice="21.0 0.0 0.0 0.0 21.0 0.0 0.0 0.0 21.0" Properties=species:S:1:pos:R:3:Z:I:1:force:R:3
Cu 0.0 0.0 0.0 29 -17.45905603841742 1.2342706811519998e-05 -0.00019439763228143998
Cu 1.7000004 0.0 0.0 29 17.361675681630675 -1.2342706811519998e-05 0.00020005470623672
2
energy=-0.038456048114869495 config_type=cluster dft_virial = "0.019668903954035175 -1.2018183414277162e-08 1.562662755609165e-07 -1.2018183414277162e-08 0.0004247000601116254 1.6973585764125244e-09 1.562662755609165e-07 1.6973585764125244e-09 0.0004246909937321192" Lattice="21.0 0.0 0.0 0.0 21.0 0.0 0.0 0.0 21.0" Properties=species:S:1:pos:R:3:Z:I:1:force:R:3
Cu 0.0 0.0 0.0 29 -10.825995399002736 1.4914104063919999e-05 -0.0001722836159108
Cu 1.8000003 0.0 0.0 29 10.878699785646827 -1.5428383514399998e-05 0.0001774264104156
2
energy=-0.8901388181739609 config_type=cluster dft_virial = "0.012283366464701719 -3.275004697849947e-08 1.9048741390828015e-07 -3.275004697849947e-08 0.00042190349434150046 5.864715365032126e-09 1.9048741390828015e-07 5.864715365032126e-09 0.00042187070673530214" Lattice="21.0 0.0 0.0 0.0 21.0 0.0 0.0 0.0 21.0" Properties=species:S:1:pos:R:3:Z:I:1:force:R:3
Cu 0.0 0.0 0.0 29 -6.403809260215311 2.8285369776400002e-05 -0.00019388335283095998
Cu 1.9000002 0.0 0.0 29 6.285998123699352 -3.291388483072e-05 0.00020314038293960002
2
energy=-1.376724426938595 config_type=cluster dft_virial = "0.007136049190530094 -2.478759474639814e-08 9.477663040388814e-08 -2.478759474639814e-08 0.0004188352108637891 2.4327929652490406e-09 9.477663040388814e-08 2.4327929652490406e-09 0.00041882311825515786" Lattice="21.0 0.0 0.0 0.0 21.0 0.0 0.0 0.0 21.0" Properties=species:S:1:pos:R:3:Z:I:1:force:R:3
Cu 0.0 0.0 0.0 29 -3.509419313220798 2.365685472208e-05 -9.359885998735999e-05
Cu 2.0000001 0.0 0.0 29 3.617468397207745 -2.4685413623039995e-05 9.462741888832e-05
2
energy=-1.6219994389180048 config_type=cluster dft_virial = "0.0033664771543386774 -3.073360312983949e-08 1.1661913510798558e-07 -3.073360312983949e-08 0.0004143135332381102 3.5722812880754214e-09 1.1661913510798558e-07 3.5722812880754214e-09 0.00041429719524758513" Lattice="21.0 0.0 0.0 0.0 21.0 0.0 0.0 0.0 21.0" Properties=species:S:1:pos:R:3:Z:I:1:force:R:3
Cu 0.0 0.0 0.0 29 -1.5705338426866995 2.5713972523999997e-05 -0.00010902724350176
Cu 2.1 0.0 0.0 29 1.526329981079592 -2.777109032592e-05 0.0001105700818532
2
energy=-1.7172991219187055 config_type=cluster dft_virial = "0.0008646310346582869 -3.724527704159391e-08 1.2064555712690773e-07 -3.724527704159391e-08 0.0004103017250870278 6.240376480560862e-09 1.2064555712690773e-07 6.240376480560862e-09 0.0004102734837612955" Lattice="21.0 0.0 0.0 0.0 21.0 0.0 0.0 0.0 21.0" Properties=species:S:1:pos:R:3:Z:I:1:force:R:3
Cu 0.0 0.0 0.0 29 -0.34838627102086445 2.6228251974479998e-05 -0.00010799868460079999
Cu 2.200002 0.0 0.0 29 0.346290067980708 -3.291388483072e-05 0.00011005580240271998
2
energy=-1.70591997670287 config_type=cluster dft_virial = "-0.0009053758685828981 -8.069523154641901e-08 1.2585788722072914e-07 -8.069523154641901e-08 0.000404047066317619 8.047250831310864e-09 1.2585788722072914e-07 8.047250831310864e-09 0.00040400396775191246" Lattice="21.0 0.0 0.0 0.0 21.0 0.0 0.0 0.0 21.0" Properties=species:S:1:pos:R:3:Z:I:1:force:R:3
Cu 0.0 0.0 0.0 29 0.43544606779537126 6.377065185952e-05 -0.00011108436130368
Cu 2.300004 0.0 0.0 29 -0.08930102661969863 -7.045628471575999e-05 0.00011159864075415999
2
energy=-1.6345355768241847 config_type=cluster dft_virial = "-0.0021607421462472827 -6.191865721627426e-08 1.1761281011814865e-07 -6.191865721627426e-08 0.00039805269943279844 5.271538379594013e-09 1.1761281011814865e-07 5.271538379594013e-09 0.00039802752314093873" Lattice="21.0 0.0 0.0 0.0 21.0 0.0 0.0 0.0 21.0" Properties=species:S:1:pos:R:3:Z:I:1:force:R:3
Cu 0.0 0.0 0.0 29 0.9537147839727447 4.37137532908e-05 -9.77130955912e-05
Cu 2.400006 0.0 0.0 29 -1.0017212278367011 -4.8342268345119995e-05 9.462741888832e-05
2
energy=-1.5285703963499162 config_type=cluster dft_virial = "-0.0027691553722500283 -5.990105131562475e-08 8.823684174962738e-08 -5.990105131562475e-08 0.00039015910586892485 4.165797134088135e-09 8.823684174962738e-08 4.165797134088135e-09 0.00039013606507105517" Lattice="21.0 0.0 0.0 0.0 21.0 0.0 0.0 0.0 21.0" Properties=species:S:1:pos:R:3:Z:I:1:force:R:3
Cu 0.0 0.0 0.0 29 1.1817997773784263 4.422803274128e-05 -7.045628471575999e-05
Cu 2.500008 0.0 0.0 29 -0.8498370206086409 -4.525659164224e-05 6.325637240904e-05
2
energy=-1.3872589503947275 config_type=cluster dft_virial = "-0.0034901455478730755 -7.569846257058618e-08 1.6091259091558875e-07 -7.569846257058618e-08 0.0003847647321759741 5.455064997247045e-09 1.6091259091558875e-07 5.455064997247045e-09 0.00038472893852500015" Lattice="21.0 0.0 0.0 0.0 21.0 0.0 0.0 0.0 21.0" Properties=species:S:1:pos:R:3:Z:I:1:force:R:3
Cu 0.0 0.0 0.0 29 1.4222423916996925 4.782798889464e-05 -0.00012908414207048001
Cu 2.60001 0.0 0.0 29 -1.4202835012728139 -5.348506284992e-05 0.000115712876358
2
energy=-1.25673710852166 config_type=cluster dft_virial = "-0.0034981557238503223 -6.491749561993237e-08 2.223644688469772e-07 -6.491749561993237e-08 0.00038005933791099885 7.000129364338688e-09 2.223644688469772e-07 7.000129364338688e-09 0.00038000412234723887" Lattice="21.0 0.0 0.0 0.0 21.0 0.0 0.0 0.0 21.0" Properties=species:S:1:pos:R:3:Z:I:1:force:R:3
Cu 0.0 0.0 0.0 29 1.399416612569588 3.188532592976e-05 -0.0001697122186584
Cu 2.699991 0.0 0.0 29 -1.2629191322204387 -4.2685194389839995e-05 0.00014708392283728
2
energy=-1.0928725635660752 config_type=cluster dft_virial = "-0.003937574085855283 -1.0264960876007646e-07 6.595026469946382e-08 -1.0264960876007646e-07 0.0003777172340034595 7.34215655666312e-09 6.595026469946382e-08 7.34215655666312e-09 0.0003776463545203204" Lattice="21.0 0.0 0.0 0.0 21.0 0.0 0.0 0.0 21.0" Properties=species:S:1:pos:R:3:Z:I:1:force:R:3
Cu 0.0 0.0 0.0 29 1.5018667361791593 6.017069570616e-05 -6.017069570616e-05
Cu 2.799993 0.0 0.0 29 -1.5018842216804755 -6.788488746336e-05 2.9828208127839998e-05
2
energy=-0.9637502761537916 config_type=cluster dft_virial = "-0.0037536984471067203 -5.735320086457751e-08 2.547526005427528e-07 -5.735320086457751e-08 0.0003779344189017771 4.288754123533333e-09 2.547526005427528e-07 4.288754123533333e-09 0.00037788355969273744" Lattice="21.0 0.0 0.0 0.0 21.0 0.0 0.0 0.0 21.0" Properties=species:S:1:pos:R:3:Z:I:1:force:R:3
Cu 0.0 0.0 0.0 29 1.3983129688688578 2.8285369776400002e-05 -0.0001851406021728
Cu 2.899995 0.0 0.0 29 -1.538873256876799 -3.2399605380239996e-05 0.00015325527624303998
2
energy=-0.8004941332348046 config_type=cluster dft_virial = "-0.004006038542224793 -9.337380293948963e-08 7.262112476829657e-08 -9.337380293948963e-08 0.0003780105353582867 5.124240922200041e-09 7.262112476829657e-08 5.124240922200041e-09 0.00037792590965940036" Lattice="21.0 0.0 0.0 0.0 21.0 0.0 0.0 0.0 21.0" Properties=species:S:1:pos:R:3:Z:I:1:force:R:3
Cu 0.0 0.0 0.0 29 1.4142988313075782 4.937082724607999e-05 -6.737060801288e-05
Cu 2.999997 0.0 0.0 29 -1.5129088302604154 -5.554218065184e-05 2.5199693073519996e-05
2
energy=-0.6808050194062591 config_type=cluster dft_virial = "-0.0037645304554736947 -8.084205425732625e-08 3.334237696022271e-07 -8.084205425732625e-08 0.0003826585847217617 2.5130375037049278e-09 3.334237696022271e-07 2.5130375037049278e-09 0.00038261318756775193" Lattice="21.0 0.0 0.0 0.0 21.0 0.0 0.0 0.0 21.0" Properties=species:S:1:pos:R:3:Z:I:1:force:R:3