20
energy=-167.66743193288937 config_type=Fullerenes dft_virial = "0.06060531272325948 0.010975075598656969 0.013837523596785946 0.010975075598656969 0.06859231959403445 -0.00853994443122419 0.013837523596785946 -0.00853994443122419 0.05593562815003358" Lattice="8.35401000 0.00000000 0.00000000 0.00000000 8.75581000 0.00000000 0.00000000 0.00000000 8.50522400" Properties=species:S:1:pos:R:3:Z:I:1:force:R:3
C 5.71016600 3.72909598 3.32131804 6 3.9394489898437133 -1.3477700987551342 -1.8111317694020101
C 2.59837204 5.03063400 5.14362803 6 -3.1928957398338724 1.164163592183116 2.048045912413533
C 3.67931201 5.00652601 5.97878404 6 -0.38309550541321014 1.3648704047630444 3.8556954956563425
C 4.64755196 5.78209798 5.40881598 6 2.709647397116385 2.8819335844244374 2.4154862370746812
C 5.72378796 5.00505600 5.11942199 6 4.659347135935177 3.38412026790585 2.841442306170345
C 4.18371803 3.73948396 6.05522397 6 1.3637729324157202 -1.5440088514692925 4.11221088564346
C 5.43625597 3.72625402 5.51759601 6 2.9174708087320558 -2.28437583396931 3.684365353846733
C 5.43449202 2.95127001 4.39863198 6 2.906434371724755 -3.0750167184304504 1.4169154851516206
C 2.44999998 3.74732400 4.70370603 6 -3.883030991287706 -1.9363346444597178 -0.2352725630055904
C 3.41804403 2.94842796 5.25417204 6 -1.9208100906880778 -6.169787939112739 1.0336872956401866
C 4.17019398 2.44999997 4.23193401 6 -1.1656190030279743 -5.810876424858351 2.983497090261381
C 2.92843597 5.00858398 2.98782404 6 -2.5870987183026046 2.7293340144807594 -4.141751097279031
C 2.64021803 3.72850802 3.36169404 6 -5.014587723472039 -3.2282354808325064 -2.6423127886650386
C 3.69479600 2.92040000 3.04760403 6 -3.628542890894381 -2.188720884738931 -2.700115227501738
C 4.94958802 5.81051802 3.23115799 6 1.5569337226187556 6.206441149827898 -1.289399381125654
C 4.18381602 5.00740799 2.45000003 6 -2.4046210551243905 1.150290904006418 -4.696375256369737
C 4.63353803 3.72066798 2.48214399 6 1.528116073611109 -0.6441077549153245 -3.812629220193697
C 5.90401002 5.00280199 3.77643002 6 3.7343754304497594 1.8056618931667048 0.16091958289354344
C 2.90246602 5.83188203 4.07680000 6 -3.6597740533631304 1.8916237033144367 -1.5796324747245916
C 4.16245198 6.30581003 4.23281601 6 2.570341950967615 5.7161245503430145 -1.6843351423272652
60
energy=-557.8017900055132 config_type=Fullerenes dft_virial = "0.15574930679481994 -1.1386784172404044e-06 0.0002421723052621239 -1.1386784172404044e-06 0.1555091583744504 -0.00056739186571145 0.0002421723052621239 -0.00056739186571145 0.15660806254156173" Lattice="11.27294000 0.00000000 0.00000000 0.00000000 11.55988400 0.00000000 0.00000000 0.00000000 11.65847200" Properties=species:S:1:pos:R:3:Z:I:1:force:R:3
C 7.76816604 6.35138001 8.37498204 6 0.0392472362633812 -0.9751453229536967 3.3404245143958176
C 7.73866803 3.75839804 7.54041406 6 0.33787337049415234 -0.8423053980563613 3.189617722616513
C 7.30070597 2.92970995 6.55404402 6 -1.156124890092663 -3.28659951282913 0.6621872489969489
C 6.89792596 4.16872398 8.52795997 6 2.382516810063309 -1.8928461455682277 0.5948428692360435
C 6.00543998 2.50654595 6.55492598 6 2.8557341320991845 -1.9716342716612143 0.653688781077767
C 5.30787597 2.44999997 5.38911796 6 0.5686351884395826 -2.0015720213120063 -2.5228734434088604
C 7.88811802 3.29809201 5.38460997 6 0.7631583049069397 -1.9303720885108526 -2.4430531584587607
C 7.19241597 3.25222806 4.21448994 6 2.428358651720196 -2.150474950565634 0.7971979474547605
C 5.89587602 2.82730001 4.21929195 6 -0.5472709915077425 -3.1181560215750643 0.738415291985446
C 3.50585199 5.20585805 3.29338800 6 0.20114909290734143 1.0399049341964899 -3.546612003079511
C 3.93195604 3.94057996 3.57719601 6 0.6788900169896384 -1.8830635218611973 -2.3368693660387048
C 5.21526595 3.57063003 3.30651998 6 -2.9026626462349348 -1.264365800314639 -1.5204209101935766
C 4.38912595 6.08511404 2.73557197 6 -2.9359020699578084 -1.1417842076160283 -1.4548862798189104
C 2.54398196 4.60158996 5.16528602 6 -2.697660571684597 -0.7286218684099554 1.8632257063383817
C 3.53544796 7.78600196 4.13628596 6 0.191916233932874 1.1426888251694225 -3.566902384518749
C 2.64070795 5.61295000 4.26084403 6 -2.351574158366279 1.8726395916794183 -0.6179504735050108
C 4.40421805 7.38047799 3.16677198 6 -2.686899274183303 1.7803439158195744 -0.5850967593699969
C 6.13881802 8.64997000 4.13236604 6 -0.6900159386213227 0.7898231801348772 -3.54207811544408
C 5.27377195 9.06156996 5.10305601 6 -2.2335367388921097 1.9292067312760648 -0.6241963974310903
C 3.98458196 8.63281999 5.10521201 6 0.6095846896840525 2.8640922017283854 -0.6256019231692522
C 5.69605403 7.80413202 3.15854005 6 0.7337584915613495 3.2796742257489666 -0.40217373018766667
C 7.70064395 6.58991198 3.28633206 6 -0.7635800140563332 0.79598681934888 -3.4983484194903145
C 8.14566197 7.43104601 4.26084403 6 0.853394291567611 2.7306541698301414 -0.5800413923717785
C 7.36871798 8.46288796 4.68057805 6 2.625205282744821 0.5042998577434357 -1.6347622032571465
C 6.47015599 6.77277998 2.72430196 6 3.2643414982123558 0.6995331941319056 -1.4642261089190776
C 6.08217398 4.45008196 2.73655198 6 -0.17476912849496984 0.9806085135561458 -2.992469723833906
C 7.30932999 4.25506198 3.30034601 6 2.711575430776234 0.5555992329288155 -1.606786943989386
C 2.65746597 6.90302195 4.68185197 6 -2.408553750082211 -1.048252718236681 -1.5388372573152655
C 3.33788000 3.57356994 4.74467003 6 -0.7760816332180517 -3.15693629209741 0.8489159461128313
C 4.02378203 2.82661405 5.65342403 6 -2.4085717498629777 -1.1492937161519372 -1.8466309370302931
C 2.45000002 4.87677404 6.49602797 6 -2.497891804822344 -1.052686321379269 -1.7874054869541154
C 8.62203996 5.94565999 7.39929397 6 2.428993272562088 -2.129259380394983 0.5111732025991008
C 6.89802404 5.46898806 8.94387199 6 2.9918659597590422 1.0968346408057248 1.4539194344520079
C 8.59655996 4.65205996 6.98142204 6 2.662691626169759 1.3040440027575224 1.3869170505256716
C 8.68632796 4.36776195 5.65018997 6 2.857288798877985 0.7638726390636564 -1.7905040206432572
C 8.73228999 6.95898000 6.49416599 6 2.7209610307474943 0.4286082082217892 -1.7807265397307317
C 8.82293998 6.66919405 5.16714799 6 2.4749107132981947 1.5040447096519423 1.766344200618608
C 8.79981197 5.37833799 4.74104402 6 2.5276927561393085 -2.4258798247688818 0.9453783140804638
C 5.21448203 7.09823799 8.90388798 6 0.02749389370211128 -1.1295448709740548 3.0842346633008537
C 6.07257000 7.98915606 8.34244605 6 2.972597451587908 1.1187280312921088 1.6506508668797262
C 5.61598797 5.83462603 9.20847197 6 -0.44177684783078003 2.4771776571159103 2.29880805818813
C 7.35431195 7.61401204 8.07666996 6 -0.9406623715195621 2.1676287416363946 2.4969007883212693
C 7.94985799 7.99484005 6.91635004 6 0.8765245241323996 2.9812100895450966 -0.887294050104901
C 5.38696196 8.73885603 7.43927798 6 0.5827367309717442 3.111290905190607 -0.8501039316434399
C 5.97564796 9.10988403 6.26788403 6 -0.596395993176493 2.112404899964402 2.556101552983824
C 7.26356400 8.73983596 6.00661604 6 2.44997381702387 1.2422744122398202 2.006391334042455
C 3.59650198 4.96654198 8.38291995 6 0.35106772407566716 -0.7868064168783616 3.1348433611842395
C 3.18411800 6.22966403 8.07902206 6 -0.5575586376351443 2.1849532734847146 2.444575939911632
C 4.81699400 4.76789600 8.94965401 6 -3.0742293565917658 -0.4344051661875998 1.6166832234549726
C 3.99134403 7.29482596 8.33950601 6 -2.947629184267104 -0.7712818631067218 1.6937685702874197
C 4.09238204 8.30667601 7.43859199 6 -2.361741463102269 2.1399162791678292 -0.8154111541935096
C 2.47822397 6.17057002 6.91801604 6 -2.499637783556724 2.4542335937121957 -0.8806238456321754
C 2.58474998 7.18477205 6.01043803 6 -2.774048041302743 -0.6020921523700095 2.032090906741841
C 3.39618995 8.25110996 6.27043199 6 -0.7968960654173287 2.017840737448491 2.5432697664148973
C 5.16401195 2.91755797 7.54110004 6 0.195810872211359 -0.8909690910580312 3.1523545764730834
C 3.93685605 3.11444002 6.97975604 6 -2.815085484333245 -0.3570055946109093 1.85378456418647
C 5.60648195 3.74555998 8.52972401 6 -0.9115217550170139 -3.5063434078274764 0.2988632170574424
C 3.14736799 4.14089206 7.40164595 6 -0.5343332633720171 -3.5262465368405036 0.5171110731343428
C 8.11302805 5.31953795 3.56857201 6 0.6792680123857412 -1.894392069596371 -2.2334796538731063
C 5.66635997 5.70938197 2.45000003 6 0.5612146502486066 -1.9861050668388207 -2.2071773456577573
28
energy=-230.9895407131695 config_type=Fullerenes dft_virial = "0.04706419893725043 -0.010460889538586949 -0.008633865972331838 -0.010460889538586949 0.0674873369661902 -0.018532081962144075 -0.008633865972331838 -0.018532081962144075 0.06783586641635453" Lattice="9.49890000 0.00000000 0.00000000 0.00000000 9.69335000 0.00000000 0.00000000 0.00000000 9.66884000" Properties=species:S:1:pos:R:3:Z:I:1:force:R:3
C 2.65827144 4.58392046 3.82365001 6 -3.0307398291413747 -17.90272954886157 3.8630450632831526
C 5.55529441 7.19429600 4.89080026 6 0.5309379904399482 2.9336006694169106 -6.771361183517214
C 5.09754080 6.95135961 6.12806235 6 -11.166393367319294 8.550695054496044 -1.8961802192456896
C 3.70203090 6.41284807 6.23234524 6 -1.7267467400494498 0.2525276671280954 1.9851762781512539
C 6.86582610 6.38688783 4.67457000 6 -1.949289343817309 15.195634006378464 -8.374327031189534
C 6.82581740 5.70277325 5.63367445 6 3.383708330066016 -10.299117130544875 14.998649548461108
C 3.58881095 3.27704004 3.52596663 6 0.8163677139714025 -0.42781878926530237 4.025666396878334
C 4.30389650 2.84055702 4.86361023 6 -2.668137331270892 -4.229420829481808 -12.194557301661325
C 7.14438144 4.25753461 5.33942390 6 4.371351157945828 7.877284170771821 -3.362205277682546
C 5.06855833 3.72413825 6.87011855 6 4.605217680933806 -9.771259674013304 -5.845272463065354
C 5.57570726 2.62004785 4.74312120 6 4.998955685295249 -1.6943939340992036 -6.421145106211542
C 6.27464971 3.40890789 5.55236260 6 -5.411542545796234 -5.016444786567722 10.40642308072588
C 4.74836893 6.92467838 3.69514155 6 -0.12477396599600711 2.7808972150242357 2.5041932709290755
C 6.61124627 4.51903289 3.96200714 6 4.113162302626848 -10.000510024653773 -3.9479526005574006
C 6.44652005 5.75673226 3.58139248 6 7.110340254829898 -2.6825284131336735 -3.521138713338336
C 5.42850679 5.98211709 2.87240903 6 -6.946922816645373 2.8960068415868228 -5.201231050199141
C 5.99475864 3.34786780 3.30209586 6 4.088507745770837 -0.400699805282591 4.161836795496979
C 4.81557479 3.77469469 2.94991812 6 -6.815066194057356 -0.19325747473972585 -4.84346226488372
C 4.40089214 5.02882730 2.39792521 6 1.9455855032149516 -0.22937892050308958 0.578615809735048
C 3.69958636 5.31032296 7.23311243 6 -4.234710193629994 0.5555524334988219 -4.226829889610289
C 3.44167593 6.42401510 3.80105064 6 -3.49359699164733 3.012192855039264 0.881897201551564
C 2.73855073 6.31408738 5.10131508 6 4.0632345107358985 -0.08573449863061984 1.1052024817444848
C 3.04886184 5.27552751 2.94971595 6 6.6394459330718405 14.339250722644662 -10.752529036663315
C 2.63016305 4.85607551 5.09462792 6 -3.794258643943101 2.7201006412268414 3.187805401833021
C 3.09257986 4.16271319 6.20320896 6 -0.688168132555748 0.9825704896597269 2.5585423232558018
C 3.93623359 3.05446851 5.99483289 6 -5.21262953993958 5.605184187285468 15.776238534748519
C 5.77870749 6.05810374 6.53739878 6 9.243515873240286 -12.372241366081616 8.370764103156608
C 5.04200140 4.91541704 7.21208686 6 1.3618567271832318 7.532823909075921 2.976117694426444
36
energy=-328.31034121383493 config_type=Fullerenes dft_virial = "-0.003579390051667681 0.0008447522622318683 0.0022187157224052593 0.0008447522622318683 0.013302493936556812 -0.008347018188766668 0.0022187157224052593 -0.008347018188766668 -0.0061313416727330015" Lattice="20.78100000 0.00000000 0.00000000 0.00000000 20.78100000 0.00000000 0.00000000 0.00000000 20.78100000" Properties=species:S:1:pos:R:3:Z:I:1:force:R:3
C 11.59200006 7.89900003 13.02700002 6 0.847967614806146 -1.673581044738278 -1.3091867972623223
C 11.41899990 8.78500005 14.09100010 6 -0.6653593246475096 0.7613814694055313 0.3321586972404186
C 8.89299994 8.55399991 13.92300005 6 0.9244821114485605 -1.6881315532307086 -1.9604018941832808
C 10.07000004 9.20899999 14.43799999 6 -1.3447651639259794 -0.20757501464108905 -0.6854018233916161
C 12.98499995 9.66900010 12.60099991 6 0.17662619159065313 -3.008203589341891 0.21953869749760527
C 12.95800003 10.51400003 11.46800005 6 -0.27308907383773623 0.6183166404737525 -1.1266052496351109
C 12.24100005 11.67200006 11.55700008 6 -1.1950913297760821 1.1052549382484338 1.616935220385708
C 12.73399997 8.24299998 12.17999991 6 -0.37359367828614165 2.0133263924321776 0.6761946783896726
C 12.26799997 9.94600002 13.78700005 6 -1.160452551668452 -0.00032039609764904 1.3167328196392156
C 11.42200005 11.99799992 12.82499997 6 0.02883462022951264 1.593328765049775 -3.0727328033908687
C 11.28199991 11.72099999 10.42599997 6 1.1319779270542756 0.5787500366716233 -0.3472846844379363
C 11.26100009 10.47000000 9.72199996 6 1.0914501349591992 -0.19407980758104337 0.6527142215191073
C 10.02200009 9.84100007 9.51000009 6 0.13342363207363023 -0.2809482923999716 0.11176423873721456
C 10.15599992 12.35400006 10.78400008 6 -2.6008459222933857 0.8774759411157874 1.6543372219807668
C 8.83399998 11.78500007 10.53600004 6 0.14621376200706784 0.6466040673679545 -0.5945492156698193
C 11.37199993 11.06000002 13.87900003 6 -0.5038498632242656 0.5158552027162707 -0.2989707014625927
C 8.75100005 10.51699997 9.82299998 6 1.0077496115552278 2.051219016622994 -0.13786649224632694
C 10.19600002 12.68099990 12.29099996 6 2.2894507435866465 -1.427664439946103 -0.17797257519200976
C 12.16200004 8.44100010 10.85200008 6 -0.2919250729910167 -1.434298644857295 0.8728314833985026
C 12.36500007 9.75200003 10.34300004 6 -0.22360201943584776 -0.8072927387882324 -0.2226392883045492
C 9.88700006 8.46600006 10.00799993 6 -1.0926628059034311 -0.633230230258222 0.01679945252937968
C 8.55399991 8.30900002 10.44400006 6 -2.013743473066517 0.9906112488679818 -0.0071813982465027204
C 7.81000000 9.57100002 10.23100001 6 -0.7905205430697282 -0.5329591086803345 0.7195720929198588
C 9.14800006 7.62199990 12.67799995 6 0.6966882002118503 0.6393408986888254 2.802608036305699
C 10.46800004 7.46700003 12.23100002 6 0.535068168706753 -0.010250103727516878 -0.6374524645466628
C 10.83799992 7.81600010 10.81700010 6 1.0845413048214507 0.8270246127442489 0.20699850737710093
C 7.15900005 8.70899998 12.28400009 6 -1.1093270029373345 -0.26754822703826475 1.9935898899611066
C 7.17200002 11.03800001 12.17400002 6 0.16187974262758958 0.7768525381143212 -0.308001962892472
C 7.01100006 9.81700009 11.41699994 6 0.7158538524928884 1.1653546633904277 -1.169973921414639
C 8.00100004 12.07599994 11.71500010 6 0.464470457142111 -1.5527654876726154 0.0210906002641848
C 10.00200004 10.63900003 14.29900004 6 1.2785028281288837 1.2678721576080119 0.499237805112361
C 8.83900010 11.35799998 13.83500000 6 1.4605875818069316 -0.40298526316052413 1.6533667766577111
C 8.98700010 12.35099991 12.84100009 6 -0.5151902393868001 1.0432354079177981 -1.76423565487164
C 8.10699997 7.85100008 11.75899992 6 0.870288371515879 -0.6744985847619897 -0.9252818159940569
C 7.66699991 9.26599998 13.54499990 6 1.016460476887458 -3.3019342974835424 0.3279380057903292
C 7.69899995 10.63199995 13.52199990 6 -1.8731034717437511 0.6994925660553176 -0.9767740459733668
20
energy=-172.67335827218864 config_type=Fullerenes dft_virial = "0.007182577550207762 -0.00816842115152176 0.0005129258988032795 -0.00816842115152176 -0.006146443842269441 -0.008000608969868357 0.0005129258988032795 -0.008000608969868357 -0.0027567607066255515" Lattice="20.75900000 0.00000000 0.00000000 0.00000000 20.75900000 0.00000000 0.00000000 0.00000000 20.75900000" Properties=species:S:1:pos:R:3:Z:I:1:force:R:3
C 11.72200010 9.47699998 11.16000000 6 1.7426276894802721 2.1316867794012486 0.3732876820131061
C 11.86600009 10.78899992 11.72800007 6 1.5262518106031189 -1.472740005221774 -0.33780085709163465
C 10.67300008 9.52200010 10.15200004 6 1.6037202956261738 -0.17228721586695336 0.4504234282317003
C 10.18800009 10.84799991 10.12799994 6 -1.1278143206231894 1.5475913221213362 -0.48249698044033595
C 10.83599996 11.70300001 11.08300009 6 0.599315557616868 -1.5171536928446774 -0.5652928862909131
C 9.70000001 8.56099997 10.51300009 6 -1.8187667621238364 -0.26492180188466335 2.0300919025178255
C 8.45599992 9.29300010 10.89599990 6 1.0810472902348898 2.984519992088386 -2.1901001822251183
C 8.78999998 10.72899998 10.56300001 6 -1.9207483771540204 -0.1310461181740612 0.8956932620901406
C 10.07300001 8.02399994 11.81800009 6 1.0116175073022877 -0.13759546697592398 -0.03679206616678968
C 9.08100005 8.35999992 12.80000002 6 2.3858416267106626 -0.179496385203782 3.5622085559742187
C 8.09000006 9.19599993 12.26999992 6 -2.155964369420058 1.5027379255682725 -0.8360857023822562
C 11.39400001 8.53499995 12.22500001 6 -0.6343225598110416 -0.9153875936462721 0.31271019126161637
C 11.24400004 9.21900007 13.44599997 6 -0.01007833439105656 0.2537341667189214 -0.10356251006095951
C 9.75599991 9.14299992 13.86199995 6 1.3678609397675856 -1.6922951596617948 -0.6526643364124107
C 11.63499996 10.64100009 13.18999998 6 -1.295093997480819 -0.8346698910550847 -1.884366191709263
C 10.43500002 11.37800001 13.32200002 6 -3.5323237771068254 -0.22693095031880478 1.4997175623556034
C 9.28300007 10.47700004 13.80999990 6 0.8224773538431048 0.1348595002993704 -0.8778925074706763
C 8.18999990 10.49999997 12.85800005 6 0.07852841497049408 0.6958267821322962 -0.9346324449626842
C 8.61599991 11.49599998 11.76600005 6 -1.8856364619519488 -1.738066545033965 -0.30269305612516695
C 9.87900009 11.99799993 12.12099991 6 2.1463396295043244 0.09565443495092855 0.06477298250850552
180
energy=-1708.3089962745523 config_type=Fullerenes dft_virial = "0.46464973762949 -0.00017868810111871118 0.00026383991266252133 -0.00017868810111871118 0.4616537900412018 0.0001523907316473547 0.00026383991266252133 0.0001523907316473547 0.45894338458782863" Lattice="16.53897000 0.00000000 0.00000000 0.00000000 16.57160400 0.00000000 0.00000000 0.00000000 16.56856600" Properties=species:S:1:pos:R:3:Z:I:1:force:R:3
C 14.08897001 8.86968606 7.87410396 6 2.1315175814620404 1.4459666170297851 0.9247973647517047
C 6.96995594 9.36899595 13.89610601 6 -1.2443222730116317 0.20890905553563416 0.3432630191351827
C 9.08303197 10.55214997 13.63179994 6 0.7010235759793966 1.2312451751448261 0.10599865181788329
C 7.69966406 8.22171000 14.11856602 6 0.15891543587502288 0.20586092123263922 1.110612187284084
C 9.72326592 9.35645207 13.86562797 6 -0.14029646264984494 0.133789799042372 1.1780553086994816
C 7.70711206 10.51490993 13.68021196 6 -0.05273061489606584 -0.07502102911822048 1.2172259173247413
C 10.30950195 2.91491200 7.16987595 6 1.1456073610508966 -0.14033606216753192 -0.4128866854206156
C 8.01698802 2.76409002 6.35824006 6 -0.7394047656481695 -0.33310034291424745 -0.9864167856698668
C 8.49326801 2.44999996 8.72993799 6 -0.28781598018168153 -0.5961321678183968 1.0557853693478616
C 9.07754401 8.15997000 14.08994995 6 0.576865202485614 -1.0104696355688165 0.5903583524278578
C 9.36948594 2.94264607 6.16076992 6 0.11670080718237207 -1.1652476932647278 0.10101271254547968
C 7.63263195 2.49909798 7.65478005 6 0.30499599950441636 -1.144255834655035 -0.2932200286473254
C 8.01150006 2.70430995 10.05029199 6 0.2562063080373788 -0.9508502474335709 -0.7888738202692911
C 6.19869597 3.71998207 11.32517405 6 -1.2542833516879788 -0.17757143722063537 0.314726166707498
C 8.49199402 3.86698197 12.13641793 6 0.7706014713937368 0.12253633610696862 1.1747613488191573
C 6.67850406 2.99879995 10.25246594 6 0.02699915687074952 -0.8934684891873641 0.7443176772386049
C 8.87546806 3.13992008 11.03195798 6 -0.3350304336918989 -0.9990253749572849 0.5570412725079614
C 7.14106399 4.11149201 12.25176398 6 -0.17481078513045872 -1.119777161371088 0.3187344607445391
C 9.56548597 7.20123592 2.67442005 6 1.1775862858406438 -0.10295257463269024 -0.41053694261137247
C 9.82489194 2.64296204 8.43103808 6 0.04192457508258008 -1.0947415234422713 -0.20473053500048413
C 8.98660002 5.79327003 13.54477603 6 0.5934959713552362 -0.575681331190609 0.877297486146471
C 11.01029995 6.92487592 13.28262602 6 0.4149134607349572 -0.7043118787857657 0.8092614005246698
C 10.72012207 4.81523003 12.32467594 6 0.49653218092338564 -0.3214575704348307 1.0157348285828307
C 9.45014005 13.25812603 11.14642192 6 -0.4693869686886998 1.2169358637146706 -0.527164207832326
C 11.01804201 11.38887396 12.42149999 6 0.33531071599241047 0.9076209453851233 0.6256533511143002
C 10.74119206 12.98999798 10.74501395 6 0.3776132864710933 0.658815632919602 0.9573615395560984
C 9.00355395 12.54840997 12.23863207 6 0.46491016607227137 0.6671911880501193 0.7562206751199646
C 8.52325598 13.86425598 6.52660402 6 -0.2396048530964339 0.9166331784753348 0.6697132144752732
C 8.04374195 12.69609594 4.43861594 6 -0.6195133687550195 -0.10640904681936632 -1.1333016823598112
C 10.33557001 12.84672204 5.24887996 6 1.377107684287216 0.07576724860086696 -0.2139628796955011
C 7.66075795 13.42345198 5.54346807 6 0.26640292670204574 1.019658780789993 -0.4557678202810885
C 9.85546803 13.56819798 6.32090196 6 -0.07544376682651505 0.9624102209214604 -0.5835132929419691
C 9.39633795 12.45237007 4.32356398 6 -0.1547950289177771 1.1230634070596552 -0.5125314146278185
C 8.51727797 13.81035601 10.21463808 6 0.7330909568346266 0.30598855884384274 1.049574930703865
C 6.22456805 13.65875003 9.40221800 6 -1.244079533111005 0.20083538244254862 0.2464144273002396
C 8.04119396 14.12160404 7.84617400 6 0.29612725038088883 0.6170417417160127 -1.2121582076197113
C 7.16311408 13.63199600 10.40975597 6 -0.029066045982228637 1.1905888131871298 -0.06546674548720303
C 8.90290804 14.07593601 8.91858802 6 -0.33346599560353873 1.1184955769804918 0.35995498725941205
C 6.70878592 13.93050395 8.13968399 6 -0.04350444155445463 1.1384053916263748 0.42729628134361475
C 11.54146006 5.90479394 12.52106796 6 1.2341328542592713 -0.05725267410413648 -0.024324389448803038
C 9.42779606 4.72281600 12.79605595 6 -0.575761558784884 -1.2542566091565537 0.03197635339249496
C 9.73198808 6.92448401 13.79585194 6 -0.4029564635112972 0.794318496811523 1.0429849538254146
C 7.45701604 8.40898801 2.47920407 6 -0.6908249001969277 1.0083178903480081 -0.5262662759117879
C 9.73963206 11.58673593 12.89905395 6 -0.19037545269923592 -0.26747005656179174 1.1575885294087291
C 7.45113594 6.01475001 2.94049001 6 -0.6324012117840483 -1.1572892187685497 -0.18691898051255984
C 8.82823194 6.05708598 2.89148997 6 0.02267303813331176 -0.01040593040101232 -1.1731609111692636
C 3.18147199 6.41017997 10.51040206 6 -0.7633485883036173 -0.821148970022515 0.44454315699491204
C 4.70782195 5.51112803 12.02803002 6 -1.0490976793738198 -0.7025905854650091 0.21096874473480656
C 4.02191993 7.82784804 12.29556994 6 -0.6704563482812168 -1.0532407146268865 0.19812255834126663
C 5.62568996 9.28040399 13.41806196 6 0.6637362587017946 0.311163752954023 1.0996102069999654
C 4.02946600 10.21973404 11.83301004 6 -0.7068894473915716 1.1061384703443584 -0.3260362003824542
C 5.05670192 8.04834798 13.18080407 6 -0.9380323464098075 0.20105035125284926 0.6753810882990133
C 3.52829403 8.94857601 11.66337195 6 -0.6102799955011016 0.14916624033227352 0.9678111837104014
C 5.06248395 10.34027406 12.73745194 6 -0.7656607887129754 -0.16629791738666327 0.8724102885285595
C 4.25271001 4.39235998 10.03118197 6 -0.9454317991433138 -0.32450930469397904 0.6531986727614595
C 3.85992601 11.19904806 10.80587195 6 -0.4483729960626366 -0.2805111548670636 1.133961502894777
C 3.38237202 11.51078595 8.43456602 6 -0.8125121609311539 -0.04257256719018488 -0.8733853623666695
C 4.72977395 12.26577795 10.71953398 6 -1.008163606512864 0.5885974595894143 0.12037841953275456
C 3.19372208 10.87613792 9.64300399 6 -0.7067331064386255 0.8755659072367048 0.32986192521457486
C 4.27123200 12.56369794 8.45034394 6 -0.905993250924354 0.6335516549147721 0.5648418632128421
C 3.10346396 10.82733405 7.21201594 6 -0.5190329354407865 0.7917712706932954 0.666927362692023
C 3.92656599 10.38750993 4.96036804 6 0.2505677481423161 0.6071310624258125 -1.1447516000452977
C 2.80005606 8.62694007 6.21143593 6 -0.745486634429546 -1.1072709136943153 -0.10737177795066487
C 3.72135392 11.21629595 6.04238603 6 -1.1735723347296476 0.17452947427104615 -0.20462922194873961
C 4.98584798 12.96393001 9.56029206 6 0.47084752232806304 1.1646357007186565 0.060895829731336795
C 3.84503002 6.53699201 11.70952999 6 -0.3703686318521816 0.7881913714385043 1.021244304335823
C 4.96311203 4.43009005 11.21218008 6 0.47425719508474545 -1.0656137639259848 0.4755408365931435
C 3.36963205 5.36922406 9.62546203 6 -0.9123461449761334 -0.17712607121651966 -0.8652525471367788
C 6.81148995 7.21260404 2.70656406 6 0.056449883881937196 -0.21765694898829893 -1.123249576220729
C 7.08520395 3.31543806 5.42547602 6 0.39250167656248935 -1.1140239171585684 0.3989337696496427
C 4.97800802 4.52603201 5.23173000 6 -1.2871766653406795 -0.1362351978294044 0.25509083590928766
C 6.79326202 4.98065408 3.67215805 6 0.25770954687113184 0.5019645147588059 -1.2919877495999197
C 5.79268196 3.58483997 5.82502202 6 -0.21955155448386726 -0.7620829465759861 -0.9592000885915642
C 7.53100593 4.02270401 4.32973793 6 -0.4802079226062495 -0.8691137572509827 -0.4844882704725946
C 5.51475399 5.18155396 4.14471394 6 -0.4276161631618133 -1.0113691103277058 -0.5168364479077865
C 7.10676398 11.84261392 3.77750796 6 0.4397547010314927 1.1851852790009365 -0.029076331571238238
C 4.99006195 10.66024406 4.04789005 6 -1.2288100619468032 0.09862697017470295 0.059410590678350556
C 6.80257197 9.64516007 2.77222397 6 0.38638432249902976 -0.8233793999992467 -1.066599637632555
C 5.81326206 11.74784804 4.24800602 6 -0.2923406107870045 0.37634764474346205 -1.0136617681179458
C 7.54737207 10.77617801 3.02437799 6 -0.6957326689928583 0.5898152733281509 -0.8431498449140494
C 5.52484806 9.64418003 3.28348998 6 -0.47349760433638644 0.7198410610724598 -0.8643618151285476
C 3.09072399 5.55444405 8.23709606 6 -0.4499580053290159 -0.5087298609298703 0.912807453643214
C 3.91607995 5.12001000 5.98211605 6 0.20667708272055094 -0.790510771760169 -0.9881812784644637
C 2.79721400 7.22446202 6.48319007 6 -0.7379436977293559 0.9565042357121482 -0.4679001867973621
C 3.70567399 4.75672398 7.29433603 6 -1.0527722060474993 -0.287661182067087 -0.2666754948108001
C 2.63502393 6.77160400 7.77365404 6 -0.9433787955769977 -0.659988704346147 -0.3124787655089004
C 3.42255196 6.35500597 5.61647795 6 -1.0424331319750495 -0.6315603648825134 -0.012079910012324719
C 8.83440594 8.34960002 2.44999998 6 -0.0167449389076288 -0.39406560037139904 -1.098615590542737
C 11.55537595 12.04664997 11.33565996 6 1.2540318690366938 0.13308832187191727 -0.23183409059968113
C 11.82487598 11.05792792 4.54278997 6 0.9961880952289868 0.5316281534624924 -0.3495110001790642
C 13.35524408 10.16113005 6.05885005 6 0.747788034970444 0.6903322204833678 -0.45809802047121334
C 8.84557801 4.11237395 4.19880997 6 -1.5237781264463102 -1.714887455921381 -1.6177575532270252
C 9.73247796 11.42826996 3.55230403 6 0.26907460844728937 2.656480673246312 -0.8451766202283911
C 10.88172402 10.76833798 3.65726192 6 2.3291731740622716 1.4196411662391644 -0.6427752568591308
C 10.72061196 9.57058205 3.10787395 6 2.0759568867499834 -0.7161973911658089 -1.6749778277257816
C 9.46964197 9.49208402 2.66785393 6 -0.4536258463698392 -1.2561368148275087 -2.715166129899486
C 8.86057208 10.63985999 2.93705999 6 -1.4460154735775808 1.1407546201561674 -2.058177217587989
C 2.45019598 7.70260400 8.69926394 6 -2.2051387419160546 -1.363252995891285 -1.294803429591298
C 2.70577996 7.53110398 9.99031593 6 -1.6395558020150707 -1.6399517971919404 1.399661923867467
C 9.71385806 3.60414606 5.06454207 6 0.2835448893454451 -2.9313506968210605 0.249026966908678
C 2.87100807 8.73307407 10.53225600 6 -1.340146934460669 0.4670567684985749 2.528790228486633
C 2.44999999 9.00757208 8.44348405 6 -2.1272007197547116 0.8561225440524074 -1.4822114898612642
C 6.36490402 2.75321192 7.94339006 6 0.934248792492626 -2.6306139597255194 -0.6423283480166637
C 5.91439802 2.98635401 9.17015402 6 0.0060890686936832 -2.1464368283204656 1.8527544624471584
C 4.76642597 3.64667807 9.06490204 6 -2.04798985595343 -0.9509099038498267 1.4500181105406666
C 4.51260603 3.81906004 7.77130197 6 -2.7532202378377533 -0.5370435160760467 -0.7554970839331391
C 5.49760407 3.26369405 7.07599199 6 -0.7193247245041778 -1.6230124606520298 -2.0424037525623167
C 7.67104801 5.92948994 13.62699804 6 1.5531995395288205 -1.052790205828266 2.121939640976301
C 7.06276206 7.08020604 13.89718396 6 0.47864862731239416 1.0457096063540574 2.5950793068151534
C 2.71117001 9.64437607 9.58008801 6 -1.6279438863026827 2.1255056546859294 0.6058664492570822
C 10.86859207 4.24457608 4.91930599 6 2.1721621149923758 -1.6183777742443042 -0.19337010193938095
C 10.70875401 5.15597602 3.96801995 6 1.9785431017989628 0.33193755707671213 -2.0800268943210822
C 9.46023395 5.07532202 3.51888606 6 -0.38967262530539887 -0.09651482447158159 -2.743425785703362
C 14.08416792 7.56452194 8.12625798 6 2.1124126141561588 -0.9717078791066883 1.3476507859226228
C 13.82015601 6.93075603 6.98867399 6 1.693431202967905 -2.216008038101949 -0.5555740332357421
C 13.66453208 7.84225407 6.03631000 6 1.3094855936230514 -0.6667576504733647 -2.4589701074511163
C 13.83172006 9.04079400 6.58118999 6 1.7105207091073555 1.8120322727198006 -1.2504709981215705
C 11.04068006 13.31016402 9.49482800 6 0.6279460089045401 1.7346985289127717 2.032015821942071
C 12.02518805 12.75509201 8.79589199 6 2.7100187068796315 0.5292989818312684 0.88565349865787
C 11.76862397 12.92590597 7.50474208 6 2.046476331530668 0.9306596362077262 -1.502288445328553
C 10.61839798 13.58280005 7.40576196 6 -0.04855003724311392 2.0944910038658318 -2.0158859612572164
C 10.17043998 13.82407597 8.63223200 6 -0.7780610948229492 2.552434226222451 0.5907996041963697