64
energy=-552.2413905004603 config_type=SACADA dft_virial = "0.0037914553200191783 -9.481155315437552e-06 -1.772633983392991e-05 -9.481155315437552e-06 0.0040172851635299645 -5.6828076439074084e-05 -1.772633983392991e-05 -5.6828076439074084e-05 0.004119831371030309" Lattice="13.49970000 0.00000000 0.00000000 0.00000000 13.49970000 0.00000000 0.00000000 0.00000000 13.49970000" Properties=species:S:1:pos:R:3:Z:I:1:force:R:3
C 1.16056921 8.96420579 8.96420579 6 -0.9392275318527231 0.9562697242827293 0.9475408591697323
C 0.34977723 7.09962723 7.09962723 6 1.0383389532697782 1.0610778191727512 1.0501750948225752
C 3.02514777 9.77499777 7.09962723 6 -1.0470025048925642 -1.0514746789939382 1.0463524556671575
C 9.77499777 0.34977723 9.77499777 6 -1.0187099352038576 1.0121611006814453 -1.003511434603822
C 9.77499777 9.77499777 0.34977723 6 -1.0102716379803818 -1.0499997255299616 1.0305440196388527
C 7.09962723 3.02514777 9.77499777 6 1.0581243122886446 -1.03358392547064 -1.052991289093404
C 7.09962723 9.77499777 3.02514777 6 1.0728049334820466 -1.0644602351185581 -1.0523864964596392
C 9.77499777 3.02514777 7.09962723 6 -1.0496597868131943 -1.0276599404805609 1.0304077355844756
C 7.09962723 7.09962723 0.34977723 6 1.0682587031398036 1.0496716152405554 1.070366734607321
C 7.09962723 0.34977723 7.09962723 6 1.032920504979521 1.0506754887278924 1.0254233391504235
C 9.77499777 7.09962723 3.02514777 6 -1.0277514822227463 1.0407231528022034 -1.0321979423515963
C 3.72470223 13.14992277 3.72470223 6 1.0379470723285125 -1.0337130096127105 1.043372206251626
C 13.14992277 3.72470223 3.72470223 6 -1.0752122755897437 1.0933221121589463 1.0761796352360964
C 13.14992277 13.14992277 13.14992277 6 -1.0359100114251611 -1.0532638572021582 -1.0448795593209828
C 3.02514777 7.09962723 9.77499777 6 -1.0786816047626817 1.110180192545681 -1.0654275947649112
C 3.72470223 3.72470223 13.14992277 6 1.096584186713341 1.0741446314505472 -1.0536567667023249
C 3.02514777 0.34977723 3.02514777 6 -1.0904848324306482 1.0863186546023096 -1.0946972954095298
C 0.34977723 0.34977723 0.34977723 6 1.0805587247569337 1.0690182938881625 1.0675803685446206
C 3.02514777 3.02514777 0.34977723 6 -1.0801457583581981 -1.0717234037976875 1.0519581016773893
C 3.72470223 6.40007277 10.47455223 6 1.083177435718778 -1.0795821080804722 1.0559756527445392
C 10.47455223 13.14992277 10.47455223 6 1.0469726766844363 -1.0428682123901554 1.058461165328709
C 10.47455223 6.40007277 3.72470223 6 1.0536752807625422 -1.0513635946326345 1.0613786726512822
C 13.14992277 10.47455223 10.47455223 6 -1.0608366221104764 1.0766661435962506 1.0943594138105646
C 6.40007277 3.72470223 10.47455223 6 -1.0717835744933935 1.0739893190565022 1.0626741425870412
C 6.40007277 10.47455223 3.72470223 6 -1.11035093332324 1.0700262816111032 1.0798341050112075
C 13.14992277 6.40007277 6.40007277 6 -1.0105781485328678 -1.0288998682356683 -1.032772906777233
C 6.40007277 13.14992277 6.40007277 6 -1.0440849975699913 -1.0543561867549778 -1.0471053607826604
C 6.40007277 6.40007277 13.14992277 6 -1.0629467106957955 -1.064196409760462 -1.0514258224461426
C 3.72470223 10.47455223 6.40007277 6 1.0651246841685784 1.0465967384061354 -1.044203796123052
C 0.34977723 3.02514777 3.02514777 6 1.0566231305726936 -1.0674296846656297 -1.068730811675344
C 0.34977723 9.77499777 9.77499777 6 1.0455136658834245 -1.0492118494118263 -1.0705163899274108
C 11.28534421 11.28534421 12.33913079 6 -0.8881055830777586 -0.9036558508219225 0.9146691452539516
C 11.28534421 4.53549421 5.58928079 6 -0.909695034408909 -0.9546415155425096 0.9222305960143591
C 2.21435579 7.91041921 8.96420579 6 0.9681099800711302 -0.9952803919988897 0.9768625020388494
C 1.16056921 7.91041921 7.91041921 6 -0.9555733899067794 -0.9574895951392677 -0.9783240842371136
C 2.21435579 8.96420579 7.91041921 6 0.9199158242077484 0.9408577977107446 -0.9381614305518781
C 8.96420579 1.16056921 8.96420579 6 0.9031163716783688 -0.8937852853288598 0.8862325773191104
C 8.96420579 8.96420579 1.16056921 6 0.9576999354345141 0.930780491878589 -0.8980388906637798
C 7.91041921 2.21435579 8.96420579 6 -0.954362261800899 0.9144300053094784 0.9405163161556258
C 7.91041921 8.96420579 2.21435579 6 -0.9323336158190387 0.9819034692124544 0.9355257483681679
C 8.96420579 2.21435579 7.91041921 6 0.959938079603003 0.8946888743233531 -0.9516694945981856
C 7.91041921 7.91041921 1.16056921 6 -0.961858913350546 -1.001688828231321 -0.9704432659379582
C 7.91041921 1.16056921 7.91041921 6 -0.9428465163457509 -0.9134672741781797 -0.8967891915991134
C 8.96420579 7.91041921 2.21435579 6 0.907305692081979 -0.8997190416284979 0.9113607855490137
C 4.53549421 12.33913079 4.53549421 6 -0.889307968432981 0.8915461126014698 -0.8920218210931637
C 12.33913079 4.53549421 4.53549421 6 0.9809777662015904 -0.9842357265203812 -0.9477568565389338
C 12.33913079 12.33913079 12.33913079 6 0.9027594617397356 0.8782957025598526 0.9726181537340379
C 4.53549421 4.53549421 12.33913079 6 -0.9672876472298129 -0.9803246312994807 0.9993935990438287
C 1.16056921 2.21435579 2.21435579 6 -0.9315009973887114 0.9402591764303859 0.9385718255533609
C 2.21435579 1.16056921 2.21435579 6 1.0315211505947646 -0.9947043990143521 1.039293455929869
C 1.16056921 1.16056921 1.16056921 6 -1.0071535616721212 -0.9371853281548669 -0.973314488109988
C 2.21435579 2.21435579 1.16056921 6 0.9003680622950038 0.9529011938820853 -0.983494135552789
C 4.53549421 5.58928079 11.28534421 6 -0.9160006147512442 0.9909954156174903 -0.989033439513909
C 11.28534421 12.33913079 11.28534421 6 -0.9642569984281341 0.977500722836895 -0.9666293695331984
C 11.28534421 5.58928079 4.53549421 6 -0.9660533765486606 1.0055551811400296 -0.9755315468210072
C 12.33913079 11.28534421 11.28534421 6 0.9830194556199959 -0.9566513196349853 -0.9727981515417059
C 5.58928079 4.53549421 11.28534421 6 0.9519878335780327 -0.944525638751568 -0.98119170645299
C 5.58928079 11.28534421 4.53549421 6 0.9842094982684068 -0.9861961597856108 -1.0399424765963747
C 12.33913079 5.58928079 5.58928079 6 0.8935343169570255 0.8895512226130579 0.9495547774978119
C 5.58928079 12.33913079 5.58928079 6 0.9384262844688752 0.978335398385024 0.9874479159680792
C 5.58928079 5.58928079 12.33913079 6 0.911867865087187 0.9355458052667368 0.9550560247795964
C 4.53549421 11.28534421 5.58928079 6 -0.9799846925827136 -0.9168769469348623 0.9443199269713759
C 10.47455223 3.72470223 6.40007277 6 1.050182294734882 1.0365060613082675 -1.018222912564253
C 10.47455223 10.47455223 13.14992277 6 0.9980914434752133 1.034255574432967 -1.0373741650206776
32
energy=-275.1697578902384 config_type=SACADA dft_virial = "0.038395419322388394 -0.0025843127556209305 0.005139726787064752 -0.0025843127556209305 0.014388618279822437 0.012042689374256342 0.005139726787064752 0.012042689374256342 0.00931262498487935" Lattice="7.51100000 0.00000000 0.00000000 0.00000000 7.51100000 0.00000000 0.00000000 0.00000000 7.51100000" Properties=species:S:1:pos:R:3:Z:I:1:force:R:3
C 6.76499997 4.59900002 0.80600000 6 1.7895958031337098 -0.10736046380275431 -1.1005533955121456
C 2.57599998 3.29399997 0.16100001 6 1.8782200379965768 -1.8382486962669196 2.211013870358338
C 6.81699997 4.75800001 5.35400003 6 4.7573446280624925 1.7537746965694263 2.552865192401953
C 2.69300002 6.10999998 5.95100000 6 1.6312759028623427 0.37248232039365436 1.0758654104918532
C 6.45300001 0.37999997 1.01800001 6 1.9107374133709767 -1.3548450411553874 2.279215039683743
C 5.68599998 5.24199998 1.11200002 6 3.3864967532465187 -2.0946134023750465 -1.4573188216196808
C 3.59299997 2.93199997 6.90700001 6 -0.5384865842140936 0.8133396365669762 -0.5404629601422882
C 2.39599999 6.08000000 2.47500001 6 5.629931828722017 0.39765784233300183 -1.6935268589456944
C 6.72100001 1.62099998 5.49800002 6 -0.6171389405321533 -1.162616639596072 -0.32944690169803753
C 3.23799999 2.76500002 2.68700001 6 1.2569750903317911 0.8400795965946837 0.36090023288939427
C 3.52300000 7.05499998 5.98300002 6 -1.3532811173464776 -0.9639155168730155 -0.2199238928060148
C 5.77399998 4.55700001 4.77800000 6 2.9252940277327575 3.299674039298683 3.5511469192738443
C 0.58100004 5.89699997 4.14300000 6 -0.050600469412177676 2.7601696960520896 -3.2310845889881654
C 0.87300000 2.43500003 3.66599998 6 -0.4826800639247068 -1.2857099403479104 0.09992398294881351
C 7.39999996 6.61099998 3.04599997 6 3.850392760242444 -3.389294947736581 5.08304140400763
C 1.79500004 2.78799998 2.70599999 6 -2.3491303024175982 -2.4039612345894246 3.221150252843243
C 0.07699999 1.78599998 4.55700001 6 1.9137618908192495 2.982900011819374 -1.7781145144017436
C 1.30999997 6.31199999 3.03599998 6 -1.5951508571428257 0.10870839024246239 2.0666936852879374
C 6.78099998 7.17700003 2.16000001 6 -4.489579375096125 5.347998691174376 -7.555206379319712
C 2.55800001 2.74300000 1.50900001 6 -0.5717810358381689 0.8379869935106806 -0.5429289301073398
C 1.56299997 4.12499996 7.27799999 6 -0.08707316804021928 2.334714535141193 -1.7086086181104707
C 6.41600000 0.97800002 7.38900003 6 -1.620189066468895 -0.044082491656794155 -0.5393243454389255
C 5.07699999 3.87100003 4.06800004 6 -5.530277842484705 -4.505576551682756 -4.518081256521177
C 0.42500002 4.19700004 0.41400001 6 -4.064331983083222 0.9579467895707445 1.0116031074776743
C 4.25099999 2.02000000 6.32099997 6 0.06099457138582896 0.26204440835922777 -0.19619143900471422
C 3.66400002 6.06899999 2.21800003 6 -5.297259880590019 0.5322730598933942 0.9439187890000016
C 0.69400003 5.30200003 5.33100000 6 -6.309051214346569 -1.0469623910954269 0.44984640668826176
C 4.19299998 0.67200001 6.02699998 6 0.0045164021341153595 -1.3343895760125453 -1.524848341982759
C 4.32299999 3.14399997 3.41700004 6 -1.1526838462895013 -0.9981125289326829 -1.0143596453322472
C 1.73899997 5.17999998 6.19400000 6 1.1203639542240857 -1.392922805948377 0.991158956482743
C 5.49100000 1.25100001 6.17699998 6 4.339658686809997 0.12577321096828975 2.193869336317686
C 4.73200000 5.73699997 1.70000001 6 -0.4034162293400264 0.09252041597970344 -0.09825463185255544
56
energy=-485.972719148325 config_type=SACADA dft_virial = "0.09813737260226255 -2.7639073453987112e-05 4.631495385917217e-05 -2.7639073453987112e-05 0.08220831372995674 -0.00014842613714289083 4.631495385917217e-05 -0.00014842613714289083 -0.07716563523221252" Lattice="33.54558115 0.00000000 0.00000000 0.00000000 17.01620624 0.00000000 0.00000000 0.00000000 2.45549808" Properties=species:S:1:pos:R:3:Z:I:1:force:R:3
C 5.72412807 0.58084565 0.61387452 6 -3.4332771549005305 -0.06503783642550272 -0.09602831611142752
C 26.44704802 2.30838331 1.84162356 6 3.9460240526181 -5.79250070581325 0.13104508961516023
C 7.09853279 15.86951405 1.84162356 6 -3.908734163943246 5.854680691332435 0.14397973207418271
C 23.87132337 10.81648643 1.84162356 6 -3.9056016878103725 -5.7776832862860195 0.0433640432644736
C 9.67425745 7.36141093 1.84162356 6 3.898006294606233 5.788453326537972 -0.01411131384172072
C 9.67425745 10.81648643 1.84162356 6 3.875472626204002 -5.78869760927695 0.061283082157548234
C 23.87132337 7.36141093 1.84162356 6 -3.9221326864666017 5.805097980952757 0.02011912638222808
C 7.80142342 3.54488432 1.84162356 6 3.0771766921224666 5.800629921086987 0.05505567229168592
C 25.74415773 14.63301339 1.84162356 6 -3.126630318360074 -5.774296241825159 0.08563627125557816
C 25.74415773 3.54488432 1.84162356 6 -3.134046228035995 5.828026101693507 0.02506135190134088
C 7.80142342 14.63301339 1.84162356 6 3.137861152999656 -5.79291830072704 0.026409278341048958
C 24.57421366 12.05298727 1.84162356 6 3.118763899885532 5.779403551047876 0.025670258770709196
C 26.44704802 15.86951405 1.84162356 6 3.9123135489185867 5.7953025002594645 0.0202446105681452
C 8.97136716 6.12491027 1.84162356 6 -3.1061799960117367 -5.781225128861475 0.10561911358342904
C 24.57421366 6.12491027 1.84162356 6 3.1487823914100495 -5.7928159591163935 0.10502460653867415
C 2.81099357 0.58084565 0.61387452 6 6.590937038184766 0.009207659281393919 -0.05539149677284936
C 30.73458758 0.58084565 0.61387452 6 -6.686848098581484 0.054997044434331205 -0.0674708925057236
C 19.58378381 9.08894877 0.61387452 6 5.987899125905323 -0.010774154487556 -0.05436396643079031
C 13.96179701 9.08894877 0.61387452 6 -5.956790361945789 -0.00210237439356224 -0.06275340710647055
C 1.42317396 0.58084565 0.61387452 6 -7.070765422556561 0.05193811026287616 -0.05482836077457376
C 32.12240618 0.58084565 0.61387452 6 7.13576777369998 0.03349810628646528 -0.06257546641660448
C 18.19596521 9.08894877 0.61387452 6 -6.354867856310382 -0.00860029525037704 -0.06530371890140087
C 15.34961661 9.08894877 0.61387452 6 6.328672518220733 0.01378628922901736 -0.06792242986324504
C 0.69454583 0.58084565 1.84162356 6 7.334142328971983 -0.0639017931193924 0.05481293239105936
C 32.85103532 0.58084565 1.84162356 6 -7.335886764868011 -0.047790960774205436 0.05759312710035423
C 8.97136716 12.05298727 1.84162356 6 -3.114036128897269 5.787290026420987 0.04307501821330384
C 7.09853279 2.30838331 1.84162356 6 -3.9231453027045964 -5.821674750480079 0.09528261090823152
C 24.87264521 5.48244638 0.61387452 6 -2.793918770710389 5.975510133943261 -0.12678222725013152
C 8.67293560 12.69545149 0.61387452 6 2.7854012744515395 -5.943719949711839 -0.042322113097801116
C 27.82145342 0.58084565 0.61387452 6 3.3201953322111866 0.0034986431016154397 -0.014667249927689599
C 22.49691797 9.08894877 0.61387452 6 -3.253292718498243 0.00481056997978992 -0.05240970451896632
C 11.04866285 9.08894877 0.61387452 6 3.225928423217653 0.0845141134946308 -0.01252630457534136
C 4.91289125 0.58084565 1.84162356 6 3.962001172306163 0.025260892328127116 0.06311185988345512
C 28.63268923 0.58084565 1.84162356 6 -3.9992236903730043 -0.016645168694235678 0.05209856545142592
C 21.68568216 9.08894877 1.84162356 6 3.6105935095137287 0.009409256825982079 0.029375127931967115
C 11.85989865 9.08894877 1.84162356 6 -3.5219574462235004 -0.05102115000267032 0.04069596147538336
C 3.54733216 0.58084565 1.84162356 6 -6.199641346933652 -0.03386993032916232 0.07348796207633959
C 29.99824966 0.58084565 1.84162356 6 6.312418716188312 -0.06975480754530528 0.055242355732210154
C 20.32012173 9.08894877 1.84162356 6 -5.735629627061369 -0.00702711441135872 0.06684398585558848
C 13.22545808 9.08894877 1.84162356 6 5.660327801363187 -0.04870072112210456 0.05458973510955104
C 6.69513208 1.74253626 0.61387452 6 3.656994372933286 5.087414836454511 -0.0440120353720784
C 26.85044840 16.43536059 0.61387452 6 -3.5750454853376494 -5.059306378809076 0.00759642176304008
C 26.85044840 1.74253626 0.61387452 6 -3.5706216535046202 5.054661921091792 -0.20221056569313217
C 6.69513208 16.43536059 0.61387452 6 3.575962959877306 -5.083257915656282 -0.1540030385640379
C 23.46792299 10.25063989 0.61387452 6 3.5020358031502568 5.014195842530773 0.00070044861155376
C 10.07765782 7.92725798 0.61387452 6 -3.511678028567306 -5.0212116427942215 0.018065094257010958
C 10.07765782 10.25063989 0.61387452 6 -3.5111719775880332 4.991696630851723 -0.11378227130089807
C 23.46792299 7.92725798 0.61387452 6 3.526207965881717 -5.041783335092871 -0.0674194645606756
C 8.09985497 4.18734786 0.61387452 6 -2.773634560624557 -5.956715791425469 -0.04526122015729432
C 25.44572618 13.99054899 0.61387452 6 2.7752267698032433 5.947919041425008 -0.07824093275767575
C 25.44572618 4.18734786 0.61387452 6 2.7695090108728064 -6.005817136239497 -0.00054719333531072
C 8.09985497 13.99054899 0.61387452 6 -2.7818548033610293 5.957221328125291 -0.04593698335522504
C 24.87264521 12.69545149 0.61387452 6 -2.7603301512406393 -5.958915878914622 -0.02825811296552456
C 8.67293560 5.48244638 0.61387452 6 2.7776824541792853 5.940078851202441 -0.10578625440483504
C 17.46733607 9.08894877 1.84162356 6 6.549137947288104 -0.01836851913279416 0.06819962648705376
C 16.07824475 9.08894877 1.84162356 6 -6.5339142469949945 -0.00414817804757168 0.05669108094421232
48
energy=-405.59083237818487 config_type=SACADA dft_virial = "0.006420556613436783 -4.399616468025588e-06 2.5555164845705454e-05 -4.399616468025588e-06 0.006121637760862733 -6.274425781167719e-05 2.5555164845705454e-05 -6.274425781167719e-05 0.00641035540736133" Lattice="9.11850000 0.00000000 0.00000000 0.00000000 9.11850000 0.00000000 0.00000000 0.00000000 9.11850000" Properties=species:S:1:pos:R:3:Z:I:1:force:R:3
C 7.72491964 8.73679959 4.94095041 6 0.01625945910637568 -0.05506030080674024 -0.05760135557156192
C 3.16566964 5.70435123 0.38170041 6 0.00288716483499472 0.034122441539348 0.0009354743204231199
C 6.71623117 4.17754959 0.38170041 6 -0.00608186878137648 -0.1111764173253159 -0.01684676623882384
C 0.38170041 3.16566964 4.17754959 6 -0.0078864753731108 -0.013688061853975678 0.01263533181884312
C 4.17754959 0.38170041 3.16566964 6 -0.02225750033732392 -0.039009124877808964 -0.02212635907745152
C 0.38170041 6.71623117 4.17754959 6 0.011328547735173439 -0.02309834723885872 0.00266293899458544
C 5.70435123 0.38170041 6.71623117 6 0.11435929284433663 0.09650093892641863 0.013301323707214718
C 0.38170041 6.71623117 5.70435123 6 0.01908696752511472 0.00493296848900416 0.03656629748802896
C 5.70435123 0.38170041 3.16566964 6 0.06839402411933519 -0.00177066414800264 -0.0231580036551144
C 0.38170041 3.16566964 5.70435123 6 -0.02507318032870192 0.01750761533269064 0.00685123083929456
C 6.71623117 5.70435123 0.38170041 6 0.02837948291583784 0.024768726894017757 0.01860045916496064
C 4.17754959 0.38170041 6.71623117 6 -0.04365563971289576 -0.0009354743204231199 0.07346584805996896
C 4.17754959 3.16566964 0.38170041 6 -0.02069563364621616 -0.02329634482729352 0.034135298525609994
C 4.17754959 6.71623117 0.38170041 6 -0.026924586350429918 -0.006663518839869359 0.015586781585147839
C 5.70435123 3.16566964 0.38170041 6 0.030358944520735356 0.0627498071503172 0.01683545209091328
C 6.71623117 0.38170041 5.70435123 6 -0.0235694272154984 -0.009681310655286 -0.027437837242008958
C 0.38170041 5.70435123 6.71623117 6 -0.01263121758323928 0.005446733660033679 -0.00404377931912424
C 3.16566964 0.38170041 5.70435123 6 -0.06678741511603568 0.02045957937844584 0.05209445121582208
C 0.38170041 4.17754959 3.16566964 6 -0.01101998006488544 0.04775701833047376 -0.0340530138135332
C 3.16566964 0.38170041 4.17754959 6 -0.02380702432162016 -0.02251412578311344 -0.18196955508114032
C 0.38170041 4.17754959 6.71623117 6 0.00114581461566944 -0.00492268289999456 0.00072461974572632
C 5.70435123 6.71623117 0.38170041 6 0.02076197569532808 -0.049456711914310156 -0.06291951936897561
C 3.16566964 4.17754959 0.38170041 6 0.028353254663863358 0.04076590348064864 -0.0317644702588972
C 4.94095041 1.14510123 7.72491964 6 -0.139601156832796 -0.12341626824673993 -0.09313652276137847
C 2.15698117 4.94095041 8.73679959 6 -0.030742082711342957 -0.01068621270152392 -0.046724345193909916
C 2.15698117 1.14510123 4.94095041 6 0.02978346581564824 -0.06277243544613831 0.00173209318921664
C 7.72491964 1.14510123 4.94095041 6 0.08310961631536992 0.1223445098719396 0.04999670533731416
C 2.15698117 8.73679959 4.94095041 6 -0.02528763485955208 0.00114118610061512 0.0391443803732852
C 4.94095041 7.72491964 8.73679959 6 -0.043195359604716155 0.09326560690344896 -0.10207007109566657
C 8.73679959 4.94095041 7.72491964 6 -0.053400206740590796 -0.01618283146825416 -0.0218157342893616
C 4.94095041 2.15698117 8.73679959 6 -0.01242653436194824 0.0353129984672092 0.045005623270405755
C 1.14510123 4.94095041 2.15698117 6 -0.0074981943879984 -0.03354336287810752 0.018655487066162
C 4.94095041 2.15698117 1.14510123 6 0.0135332637393812 -0.03092465191626336 -0.04790358797386056
C 1.14510123 4.94095041 7.72491964 6 0.09964370064830191 -0.0214300247015016 -0.00116792863204008
C 4.94095041 7.72491964 1.14510123 6 0.041336239391230954 -0.008138472303846 0.08246830984062135
C 8.73679959 4.94095041 2.15698117 6 -0.03891861169452448 0.00081924716461464 0.01639060036624808
C 1.14510123 2.15698117 4.94095041 6 0.07155118566583192 0.017651613578825037 0.03888672636859472
C 8.73679959 7.72491964 4.94095041 6 -0.08869726254483512 0.037541371326139036 -0.01691825108244056
C 8.73679959 2.15698117 4.94095041 6 -0.0222605860140268 -0.08130089548803177 -0.0499313918471032
C 1.14510123 7.72491964 4.94095041 6 0.01687299449079832 0.030907680694397522 -0.01241676305238912
C 2.15698117 4.94095041 1.14510123 6 0.02060254906567928 -0.00411063564768664 0.04441163050510136
C 4.94095041 1.14510123 2.15698117 6 -0.01635048656911064 0.06753620599593456 -0.06855602214623639
C 7.72491964 4.94095041 1.14510123 6 0.0016662654195552 0.00124301343181016 0.01853103143914584
C 4.94095041 8.73679959 7.72491964 6 0.06844750918218512 -0.09732635744443903 0.10507552020427167
C 7.72491964 4.94095041 8.73679959 6 0.01354046365168792 0.034331753275693364 -0.0269842427666856
C 4.94095041 8.73679959 2.15698117 6 -0.03043814355610928 0.0317413276836256 0.04344838509435232
C 6.71623117 0.38170041 4.17754959 6 -0.058186605586208154 -0.05478721841853536 0.10869913321235376
C 0.38170041 5.70435123 3.16566964 6 -0.00018565488162328 0.02122791287746296 -0.0030810481878256798
8
energy=-74.0269682499479 config_type=SACADA dft_virial = "-0.004916398541484522 -6.614178812666045e-05 -4.8298067096912564e-05 -6.614178812666045e-05 -0.0049183048434615784 -4.6219812037377525e-05 -4.8298067096912564e-05 -4.6219812037377525e-05 -0.0049130804315870935" Lattice="4.11460000 0.00000000 0.00000000 0.00000000 4.11460000 0.00000000 0.00000000 0.00000000 4.11460000" Properties=species:S:1:pos:R:3:Z:I:1:force:R:3
C 2.57162500 1.54297500 3.60027500 6 -0.00654112033065512 0.02772531945482728 -0.025285063462299678
C 1.54297500 0.51432500 3.60027500 6 -0.007013743145646239 0.007205569380675281 0.006322037284750639
C 2.57162500 2.57162500 2.57162500 6 -0.01652174162612048 -0.007701334770938 -0.007754305554337439
C 3.60027500 1.54297500 0.51432500 6 0.00971576737846816 -0.01326275274842872 0.0049062259575792
C 3.60027500 2.57162500 1.54297500 6 -0.02239481295060208 -0.009008118854607679 0.02343674311727456
C 1.54297500 3.60027500 2.57162500 6 0.0205274642659092 -0.02425136176683488 -0.007658135297097681
C 0.51432500 3.60027500 1.54297500 6 0.009469427521688238 0.009451942020371919 -0.00657660561273824
C 0.51432500 0.51432500 0.51432500 6 0.009599540222659679 0.006679975782284719 0.00946428472718344
54
energy=-488.40571929899437 config_type=SACADA dft_virial = "-0.0034220443693686086 -8.851990303548014e-05 0.0001110064176148832 -8.851990303548014e-05 -0.0034534949472004835 5.637225771712684e-05 0.0001110064176148832 5.637225771712684e-05 0.019211434824778786" Lattice="10.60360000 0.00000000 0.00000000 -5.30180000 9.18298697 0.00000000 0.00000000 0.00000000 6.09500000" Properties=species:S:1:pos:R:3:Z:I:1:force:R:3
C 6.63080221 6.12202192 2.53960365 6 0.36923927417892755 0.0051607942855668 0.023600283982527198
C 2.32054484 4.04317733 5.91592890 6 0.057792667527140476 0.11272799842741409 0.36300775007746133
C -2.34122181 8.21274315 4.90009555 6 -0.05449202201395984 -0.09354074640945576 0.34131184290006156
C 8.26237808 2.09075189 0.83676225 6 -0.03377376007192256 -0.0780136212405636 0.3768701526651497
C -0.64003324 3.04905774 4.90009555 6 0.11481648727581337 0.027658977405715362 0.3510960094454436
C 4.66176665 6.11005346 0.83676225 6 0.11339707599248856 -0.007862304238938241 0.37464846543907615
C 2.98125521 7.10417296 4.90009555 6 -0.042507253699973914 0.06116222648668544 0.3456929895387007
C 2.98125510 0.98218171 0.83676225 6 -0.05789346629943456 0.0632898005733212 0.3811597575616034
C 2.96057819 7.09223508 2.21073775 6 -0.04782181754123424 0.11762291023708271 -0.4155316246344342
C 2.96057808 0.97024382 4.24240445 6 -0.04761867715829464 0.12768890192132776 -0.3705820578241308
C -0.64003324 3.07293351 2.21073775 6 0.0762002718981711 0.00328264573241384 -0.39178425672906975
C 4.66176665 6.13392923 4.24240445 6 0.10672841435811439 0.00509959503095968 -0.34835335713603377
C -2.32054479 8.20080526 2.21073775 6 -0.052345419587656324 -0.08523153332805039 -0.37401075892048097
C 8.28305510 2.07881401 4.24240445 6 -0.02900227533036912 -0.062200042417754085 -0.36187376388915293
C -2.96057808 7.09223508 5.25823775 6 0.05913236549564088 0.10406804676078137 -0.3875887649720539
C 7.64302181 0.97024382 1.19490445 6 0.04739033708228152 0.08733545055996407 -0.34727902736398103
C 0.64003335 3.07293351 5.25823775 6 -0.07631547049507864 -0.013295666633259439 -0.40486495455202853
C 5.94183324 6.13392923 1.19490445 6 -0.10870119033015567 0.01645797097426096 -0.3581277523718566
C 2.32054490 8.20080526 5.25823775 6 0.06372385242952631 -0.07585416182799808 -0.3667918182740932
C 2.32054479 2.07881401 1.19490445 6 0.06645210491432271 -0.08079227311150704 -0.35590349374853064
C 2.34122192 8.21274315 1.85259555 6 0.07081936600779888 -0.10850884981567616 0.3451828243238246
C 2.34122181 2.09075189 3.88426225 6 0.056518283048851044 -0.1386980821177531 0.41127339078445985
C 0.64003335 3.04905774 1.85259555 6 -0.09717927352160176 0.00380463937465104 0.3417788086410974
C 5.94183324 6.11005346 3.88426225 6 -0.09537518120931791 -0.012710416618613201 0.3596073343508876
C 0.64003330 9.17104909 5.91592890 6 -0.11579721818787872 0.03047465739709336 0.35744838921777256
C -2.96057814 5.15174752 5.91592890 6 0.044922309999428 -0.0882323539216012 0.3587088881508991
C 7.62234484 5.13980964 3.22657110 6 0.057957236951294074 -0.07884315399418784 -0.34588790145043263
C 5.94183330 0.01193788 3.22657110 6 -0.08371492322858487 0.01270115958850456 -0.34649166552529614
C 1.98637239 2.68143220 2.53960365 6 -0.17426153467734606 0.34015111418032823 0.009740967071541679
C 7.28822541 0.37953285 2.53960365 6 -0.2439093720969515 -0.3178905281663014 0.023467599884303362
C 1.32900221 3.06096505 0.50789635 6 0.37776191323228203 -0.040666647546706 0.014130856460838958
C -3.31542761 6.50155477 0.50789635 6 -0.1747336432128867 -0.31945548053411205 -0.013446350512250078
C 1.98642541 8.80345412 0.50789635 6 -0.14851361970961438 0.29835819463707103 -0.01877274278087144
C -1.32900221 3.06096505 3.55539635 6 -0.3755998824224641 -0.01897228320765768 0.01784961116725984
C 3.31542761 6.50155477 3.55539635 6 0.14964092026506656 -0.3321026407803162 -0.00785253292937912
C -1.98642541 8.80345412 3.55539635 6 0.18127784922024473 0.28213010657717463 -0.01001507801864752
C 3.97279779 6.12202192 5.58710365 6 -0.36189639218497405 0.02054597832612648 0.00529296410434016
C 8.61722761 2.68143220 5.58710365 6 0.17736109692538904 0.30455680485370645 0.031452816911906316
C 3.31537459 0.37953285 5.58710365 6 0.18961277627417408 -0.3266137362053432 0.023014519688430476
C -2.98125510 7.10417296 1.85259555 6 0.0679028872441268 0.08786361555560704 0.3551449315590726
C 6.63080226 0.00003058 4.57127030 6 0.36519652341870423 0.00935165752752832 -0.019599189857792798
C 1.98642546 3.44052848 4.57127030 6 -0.2157654291694335 -0.30033199916801323 -0.01054992864714672
C -1.32900226 9.18295639 1.52372970 6 -0.3577528426524567 0.010642498948233119 0.0099487359695356
C -1.98637244 3.44055915 1.52372970 6 0.19569001654049623 -0.30846635723625543 0.0126692742625748
C 3.31537454 5.74245849 1.52372970 6 0.20168137213858822 0.28246181682273425 -0.01362171980486376
C 2.96057814 5.15174752 2.86842890 6 -0.0354055687682956 -0.08157346359678616 0.354158543573052
C -0.64003330 9.17104909 2.86842890 6 0.08791144354450167 0.01510078750444424 0.34390895412498557
C -2.32054484 4.04317733 2.86842890 6 -0.07327145042768753 0.08762498989058431 0.3334665098829892
C 8.26237814 4.03123945 0.17907110 6 -0.05404768456874512 0.07725608761000656 -0.3680914024454562
C 4.66176670 0.01193788 0.17907110 6 0.08758641893179832 -0.00289899326235576 -0.36353848647035675
C 2.98125516 5.13980964 0.17907110 6 -0.09442633562318233 -0.09729138644180639 -0.3277986360592491
C 2.34122186 4.03123945 3.22657110 6 0.030889680913630722 0.07647901136033128 -0.333277769324663
C 7.28817244 5.74242782 4.57127030 6 -0.20737187425814943 0.33320782731939774 -0.0032903599241710397
C 7.62234479 0.98218171 3.88426225 6 0.041806805088420156 0.06581902691078184 0.39929325098552826
32
energy=-284.79096436257845 config_type=SACADA dft_virial = "0.005535626912002711 5.2792000433348e-05 1.208732080405714e-05 5.2792000433348e-05 0.005543181213044771 -1.826683872687411e-05 1.208732080405714e-05 -1.826683872687411e-05 0.005541048850337955" Lattice="7.84440000 0.00000000 0.00000000 0.00000000 7.84440000 0.00000000 0.00000000 0.00000000 7.84440000" Properties=species:S:1:pos:R:3:Z:I:1:force:R:3
C 7.05439048 0.79000952 7.05439048 6 0.014419881512008719 -0.00105632999128592 0.005192165332046079
C 5.53320443 2.31119557 5.53320443 6 -0.046764973270497834 0.030885566678026877 -0.03630144357103176
C 2.31119557 5.53320443 5.53320443 6 0.033069711504215435 -0.0427520507184024 -0.032121380197530316
C 5.53320443 5.53320443 5.53320443 6 -0.03917420858141304 -0.03594247651459672 -0.03740405871286088
C 2.31119557 2.31119557 5.53320443 6 0.03361021920666992 0.0211934561542808 -0.016941393657712158
C 5.53320443 2.31119557 2.31119557 6 -0.03087373825066584 0.03181281252724232 0.0211034572504468
C 2.31119557 5.53320443 2.31119557 6 0.0359327052050376 -0.0290593603493724 0.04985527848843216
C 6.23339557 6.23339557 6.23339557 6 -0.018835484873829998 -0.0186272016963856 -0.012198708565385599
C 1.61100443 1.61100443 6.23339557 6 -0.005556789462436399 -0.00277350907643864 -0.010626556285268238
C 1.61100443 6.23339557 1.61100443 6 0.0061430680359836 -0.00529604978104304 -0.005377820213669359
C 6.23339557 1.61100443 1.61100443 6 0.00132324102608504 -0.005956898874909839 0.00414303525306688
C 1.61100443 1.61100443 1.61100443 6 0.011894255130701439 -0.0002391399444732 0.011798084873461678
C 6.23339557 6.23339557 1.61100443 6 -0.012494419249411599 0.0011262719965512 -0.00502399595173912
C 1.61100443 6.23339557 6.23339557 6 0.00756916495216464 -0.00869029415421104 -0.00470925692804536
C 6.23339557 1.61100443 6.23339557 6 -0.0038982382346384 0.00784276161982 -0.00646603553088504
C 3.13219048 3.13219048 3.13219048 6 -0.033115482375308154 -0.024266790150349278 -0.026216423547118957