6
energy=-55.09302796476757 config_type=Crystalline_RSS dft_virial = "0.0082251389945274 -0.000778623799222147 -0.0016846159196800866 -0.000778623799222147 0.004583579435733087 0.003458067013294102 -0.0016846159196800866 0.003458067013294102 -0.0003559828096557537" Lattice="3.02162976 -1.90262539 0.00000000 0.13672214 3.56823720 0.00000000 0.00000000 0.00000000 3.37623482" Properties=species:S:1:pos:R:3:Z:I:1:force:R:3
C 0.73989818 2.39178281 1.36011181 6 1.251414700913201 -5.303054267158577 1.2941677801905045
C 0.63191322 1.26766115 2.49344375 6 10.549047686448048 2.0479944844684845 -2.147298246400019
C 1.57234890 -0.00143020 1.99407340 6 -5.784158578847014 0.33196532816703805 -3.580355934943306
C 2.44243803 -0.54480855 3.09533100 6 -6.5675244662016645 -4.04699356568974 0.0302499172772336
C 2.28982485 0.39630629 0.70590584 6 4.268623323432997 2.0349713859439795 8.470353290183159
C 1.68197548 1.65929686 0.31326807 6 -3.711392796087259 4.933711108530653 -4.090015098840193
10
energy=-84.76073137780217 config_type=Crystalline_RSS dft_virial = "-0.03026115193084081 0.0008089515479644518 -0.0018498477284719511 0.0008089515479644518 -0.005470848793193561 0.0006088415552839965 -0.0018498477284719511 0.0006088415552839965 0.04351749773922982" Lattice="3.93942511 0.00000000 -1.20487413 0.00000000 5.12049179 0.00000000 -0.05474483 0.00000000 3.05420504" Properties=species:S:1:pos:R:3:Z:I:1:force:R:3
C 2.89097546 0.32765530 1.87883739 6 -0.6864180395857646 0.3738590464825894 -2.3807554029454154
C 3.55294710 4.34732062 -0.22743614 6 -1.0052167852616136 2.598751262091581 3.3746981540936067
C 2.28035522 4.66933745 0.79723800 6 1.5831768886972997 -2.8356258055854164 2.1204379449808997
C 2.96473669 1.83218549 1.19978145 6 1.4225905588876673 -1.6483021526293842 2.144915075426495
C 3.65722902 3.02425477 -0.69479856 6 1.7609674089638394 -6.233777159738713 -4.2781169220888575
C 0.91315153 2.95169049 2.50057988 6 -1.6862544332364566 -3.802472201046717 0.9486290744869479
C 1.48607980 1.66846683 0.37200263 6 -0.5772971972240173 2.8272142508933653 2.326614119516683
C 0.33788974 2.04620602 1.51650618 6 -1.6188899965769823 3.775345502872249 -3.0647100439633808
C 0.95213548 4.33050180 2.00627533 6 1.790566762736216 -0.4886349056818148 -6.742891701697542
C 1.70862954 0.21153207 -0.30378604 6 -0.9916032939279575 5.425935684776818 5.499221020749669
16
energy=-139.62201790689693 config_type=Crystalline_RSS dft_virial = "-0.010145525402395113 -0.0011780843690694846 -0.007918784278458484 -0.0011780843690694846 0.024449451709018348 -0.0032439954432962885 -0.007918784278458484 -0.0032439954432962885 0.04855764505573316" Lattice="7.02911485 0.00000000 -0.00156634 0.00000000 4.37325470 -0.00000002 0.00065284 -0.00000002 3.48888625" Properties=species:S:1:pos:R:3:Z:I:1:force:R:3
C 2.95155450 3.09846550 3.13938165 6 0.593991736745499 -5.155119726110203 -5.244624407392292
C 2.97689042 3.53804259 1.68698721 6 -0.04659166109568608 1.4454009096342573 -1.5531450259070696
C 3.95186259 3.54793949 0.58191942 6 6.2184938030293475 -3.1102052612706435 -0.6790155011755555
C 6.53447210 3.49414442 3.05518853 6 -0.8046596280017747 -1.5170276943793097 -1.019908206323476
C 6.47741925 3.03342091 1.61464253 6 0.736922853020153 -1.8635563880250403 -3.7970840952440383
C 1.96670886 3.68166925 0.44768211 6 -4.994835278338003 -14.391385287657624 4.810166784700743
C 0.62353059 2.84983706 0.49094469 6 -1.537870411948363 11.643000819492732 -0.7042085086162192
C 5.37319788 2.70864229 0.38951926 6 1.4672912144439383 20.56751223527698 3.805583077442671
C 6.54236197 0.79008565 3.07870419 6 -0.30652700942849537 2.1978040883933088 -2.4519779640423907
C 6.63368385 1.43477250 1.49663242 6 -6.245689414650181 -2.966887921128679 7.190003684547602
C 0.62063185 1.49100123 0.61453855 6 1.2691779131327805 -11.092817977736372 -4.522233548804352
C 2.95959943 1.25395808 2.99236217 6 -0.09097706334881296 2.424759209846286 0.444913952478708
C 3.01176029 0.70965791 1.61398877 6 -0.4813964224163088 1.4413360448576633 -3.638572368737642
C 5.32549118 1.45501328 0.39764463 6 7.3895266258325245 -15.939238892298704 1.2129939117267414
C 4.14270995 0.71347411 0.37716161 6 -6.409862329347461 0.5748152845960008 3.722947112501193
C 1.85580153 0.59136370 0.45452639 6 3.317710848185918 15.700631227056752 2.4000758533410482
4
energy=-4.442117201476269 config_type=Crystalline_RSS dft_virial = "0.03683312884032273 -0.007771328358096841 0.006729235356170901 -0.007771328358096841 0.02948780281582526 0.0016658362467609088 0.006729235356170901 0.0016658362467609088 0.011825962968883936" Lattice="2.12485040 -1.33773650 0.00000000 0.09609500 2.50905490 0.00000000 0.00000000 0.00000000 4.17906630" Properties=species:S:1:pos:R:3:Z:I:1:force:R:3
C 0.73376061 1.29330148 1.70784983 6 -2.05222134727198 3.6278362709294214 2.975334961102813
C 1.39031709 0.05823521 2.33599417 6 2.9909479709399354 0.10697886845049816 -2.68021055565036
C 1.57215685 -0.09033859 3.91766804 6 -16.97122443723725 -9.614783465571907 -4.144549806048544
C 0.69401545 1.02428200 0.24106384 6 16.019640313027846 5.883642852865667 3.8270300733660383
24
energy=-174.5166746021257 config_type=Crystalline_RSS dft_virial = "0.015083684228157904 -3.604635750553859e-06 3.089679085630584e-06 -3.604635750553859e-06 0.018577556017862686 -1.363514458253305e-05 3.089679085630584e-06 -1.363514458253305e-05 0.016058633271861286" Lattice="2.58077415 0.00000000 0.00000000 0.00000000 6.97051952 0.00000000 0.00000000 0.00000000 8.68014951" Properties=species:S:1:pos:R:3:Z:I:1:force:R:3
C 1.93558035 0.64610512 2.63062660 6 -0.05249713202554791 -0.00032296749490144 -0.09645259665807351
C 1.93558035 5.42357415 0.81148357 6 -0.03201389579238 0.34034242613590676 -0.8127405010071671
C 0.64519380 6.32441440 7.86866594 6 0.03307896853432408 -0.352101425771132 0.8117937125388333
C 0.64519380 6.32441440 0.81148357 6 0.0317130423138492 -0.35165760260536777 -0.8173381592944583
C 0.64519380 4.13136488 2.63062660 6 0.048498095018615434 -0.0102161612837852 -0.09649528185246335
C 1.93558035 1.93831439 3.52859015 6 -0.024073421076968797 0.3595553921263891 0.8096543100248365
C 1.93558035 0.64610512 6.04952187 6 -0.053801344711965196 0.007511565653710879 0.09678070694747976
C 1.93558035 1.93831439 5.15155832 6 -0.02754069313210496 0.3514251482937508 -0.8056480731055974
C 0.64519380 2.83915464 3.52859015 6 0.02657179064740064 -0.34078573502222054 0.806842229989612
C 0.64519380 2.83915464 5.15155832 6 0.02217624418414808 -0.3454003645313776 -0.8096198533016544
C 0.64519380 0.64610512 6.97070135 6 0.051058178123104876 0.0034060728005290398 -0.09793372147545593
C 0.64519380 5.42357415 3.52859015 6 0.02668801780320912 0.3388283874336937 0.8077890184579456
C 0.64519380 4.13136488 6.04952187 6 0.05029035890353824 -0.00122449937159288 0.0945091346147096
C 0.64519380 5.42357415 5.15155832 6 0.03017586103636448 0.33586562351947835 -0.8063593215856112
C 1.93558035 6.32441440 3.52859015 6 -0.03152378747607256 -0.34809313173409084 0.805616702059118
C 1.93558035 6.32441440 5.15155832 6 -0.028130057382355036 -0.3497511686824384 -0.8055025320211116
C 1.93558035 4.13136488 6.97070135 6 -0.05012064668487984 -0.00309493373298864 -0.09581951865453264
C 0.64519380 1.93831439 7.86866594 6 0.025784943088166236 0.35825580795502615 0.8187133425450417
C 0.64519380 0.64610512 1.70944712 6 0.048588093922449435 0.00293087858828552 0.09721938731873919
C 0.64519380 1.93831439 0.81148357 6 0.03161738633605992 0.3551439030001717 -0.8111025209573881
C 1.93558035 2.83915464 7.86866594 6 -0.028616565742509117 -0.346521493733424 0.8116738854268715
C 1.93558035 2.83915464 0.81148357 6 -0.0227542942864876 -0.34221543189455494 -0.8181075213523763
C 1.93558035 4.13136488 1.70944712 6 -0.04929985668191376 -0.00060119267761112 0.09576243363552936
C 1.93558035 5.42357415 7.86866594 6 -0.0258785419481536 0.3398728889976186 0.8167642234277225
16
energy=-147.371207863996 config_type=Crystalline_RSS dft_virial = "-0.006548198876204589 4.1027097430988276e-06 -0.005060042333982972 4.1027097430988276e-06 0.005894573245737992 -4.30791992676303e-05 -0.005060042333982972 -4.30791992676303e-05 0.049246898617033505" Lattice="4.39525682 0.00000000 -1.64512803 0.00000000 6.80573498 0.00000000 -0.11961170 0.00000000 3.27253158" Properties=species:S:1:pos:R:3:Z:I:1:force:R:3
C 3.67762174 3.93134690 -0.31296539 6 -0.4909594487979843 0.01379246058242312 1.9095705132978376
C 0.76808050 4.98830769 -0.25327042 6 -1.7721252159214538 -1.3238931324282486 0.06724615238586384
C 1.30993721 6.27725462 2.70323797 6 1.7813081897892247 1.3181810305717672 -0.07068976758627792
C 3.50756460 4.98830769 1.88067446 6 1.7769887566846427 -1.3477700987551342 -0.0497745366147068
C 0.59802336 3.93134690 1.94036946 6 0.5015638910668819 0.0140038294365704 -1.9827272794080677
C 3.61048634 0.52848036 -0.09721093 6 1.6125422453197078 -0.00204323225675704 2.746957342689808
C 0.66515875 0.52848036 1.72461400 6 -1.6421935413165825 0.02963175337775664 -2.6983584488988988
C 2.96570888 6.27725462 -1.07583491 6 -1.7734273714900688 1.3643648680632228 0.056238000748339435
C 1.47999335 0.52848036 0.50959813 6 -0.4701527307904645 0.019608961167351918 1.9160972338038789
C 2.96570888 1.58544020 -1.07583491 6 -1.776612818406342 -1.3484520333064705 0.03455597911610264
C 3.50756460 2.87438808 1.88067446 6 1.787878624048557 1.3254267137495799 -0.0376812553366696
C 1.30993721 1.58544020 2.70323797 6 1.7708595741938224 -1.3189452498351806 -0.05152668670249215
C 2.79565175 0.52848036 1.11780494 6 0.4840069049069453 0.0069324869924704 -1.9371158349449968
C 1.41285796 3.93134690 0.72535356 6 1.6111506051267088 0.00824287103229344 2.7430040765539685
C 2.86278714 3.93134690 0.90205048 6 -1.6252202623329406 0.02480524073500184 -2.729394699455916
C 0.76808050 2.87438808 -0.25327042 6 -1.7755744881958229 1.3250713466492983 0.08359612467552399
16
energy=-145.44714023491397 config_type=Crystalline_RSS dft_virial = "0.0006003933326317897 9.56402180530619e-07 -1.2873980834858042e-06 9.56402180530619e-07 0.0005973502583551992 4.822871004256144e-07 -1.2873980834858042e-06 4.822871004256144e-07 -0.0204049137328029" Lattice="5.03861446 0.00000000 0.00000000 0.00000000 5.03861446 0.00000000 0.00000000 0.00000000 4.27494483" Properties=species:S:1:pos:R:3:Z:I:1:force:R:3
C 4.28412437 1.76481659 2.93042505 6 1.5933215651374681 1.590597941167726 1.589871264304198
C 3.27379787 4.28412437 2.93042505 6 -1.5844790442659151 1.5959510759677724 1.5925408889316395
C 1.76481659 4.28412437 3.48199168 6 1.5869465570693182 1.5862250230002946 -1.5661398390617982
C 1.76481659 0.75449009 1.34451978 6 1.5906061696389338 -1.5780582653266724 -1.5924102619512177
C 3.27379787 4.28412437 1.34451978 6 -1.5947394335824416 1.5833363153269486 -1.5903197159850164
C 0.75449009 3.27379787 1.34451978 6 -1.5877046049793255 -1.585921083845061 -1.5916974706328524
C 1.76481659 0.75449009 2.93042505 6 1.5850030950259542 -1.5991072089553682 1.5922580352338755
C 3.27379787 0.75449009 0.79295315 6 -1.5884616243304321 -1.5900384051256038 1.5669436578428986
C 1.76481659 4.28412437 0.79295315 6 1.5888334483731292 1.5917879838161368 1.5673262817540556
C 0.75449009 1.76481659 0.79295315 6 -1.5853522907728301 1.5965491829686806 1.566903544045761
C 4.28412437 1.76481659 1.34451978 6 1.5879720302935751 1.5874700935499066 -1.5918368403639325
C 4.28412437 3.27379787 3.48199168 6 1.5924282617319845 -1.580247038667915 -1.566250923423102
C 0.75449009 1.76481659 3.48199168 6 -1.5919612959909486 1.5760422898807906 -1.5677845047444332
C 3.27379787 0.75449009 3.48199168 6 -1.5854469181917183 -1.5880347723865338 -1.5648268836247228
C 4.28412437 3.27379787 0.79295315 6 1.5829655198431525 -1.5951724568797456 1.5644581452587285
C 0.75449009 3.27379787 2.93042505 6 -1.5899396634711118 -1.5913894172420147 1.5909656509748193
14
energy=-97.62167889158776 config_type=Crystalline_RSS dft_virial = "-0.008561619586357467 3.809496039015296e-05 0.00027855311580092236 3.809496039015296e-05 0.005953586731606978 0.0001227205263082813 0.00027855311580092236 0.0001227205263082813 0.041818764564345155" Lattice="9.96318648 0.00000000 -0.00135820 0.00000000 2.62209961 0.00000000 0.00022647 0.00000000 3.23263900" Properties=species:S:1:pos:R:3:Z:I:1:force:R:3
C 0.56467849 0.30832708 1.61624280 6 -0.03253743227296864 0.03993379932977199 -0.012558189901271118
C 6.67548426 2.23582516 2.76894496 6 -2.448103896941925 0.05625085773460144 0.6023600919637095
C 6.67542812 1.00272375 0.46156814 6 -2.413510889705387 -0.028996618256413836 -0.5632373113273446
C 8.03708376 2.27477847 2.03703747 6 -0.0631483737244392 -0.0837807509982463 -1.7271165069743448
C 9.39865364 0.92477536 0.46150281 6 2.537225954312856 0.13893002214991962 -0.640994821401569
C 8.03705305 0.96372762 1.19341030 6 0.07981205647889215 -0.11678309189444887 1.7035208515068723
C 9.39870869 2.31377253 2.76887963 6 2.48078789885828 0.0057146732537337605 0.6698911551651393
C 5.54627173 1.61937791 1.61556421 6 -0.12242885170181832 0.05135131740987848 -0.0875920760057536
C 1.69389102 0.92477536 2.76962355 6 -2.541278990662089 -0.03464597801993664 0.6324953249234861
C 1.69383488 2.31377253 0.46224776 6 -2.4661952194509102 -0.0062958090327761606 -0.6083859042849837
C 3.05549052 0.96372762 2.03771609 6 -0.06741226464836887 0.02564814475433856 -1.7208839543139778
C 4.41706040 2.23582516 0.46218140 6 2.4854786417261083 0.016084089813761998 -0.541304835602724
C 3.05545981 2.27477847 1.19408889 6 0.03825056268835096 -0.018588630737599598 1.666850669569846
C 4.41711545 1.00272375 2.76955821 6 2.4892395673474685 -0.044729455205497995 0.6259336334148119
12
energy=-99.2595517396599 config_type=Crystalline_RSS dft_virial = "0.004065123022956556 0.010987937086383924 0.020106231212564517 0.010987937086383924 -0.034410575864407274 -0.009168208063875704 0.020106231212564517 -0.009168208063875704 0.021209733892856273" Lattice="3.79700000 0.00000000 0.00000000 0.00000000 5.79600000 0.00000000 -0.02626350 0.00000000 3.76190832" Properties=species:S:1:pos:R:3:Z:I:1:force:R:3
C 2.88300001 3.61900003 3.41899999 6 0.7104919749421839 0.4524826031514222 -1.386145117070501
C 1.48600000 4.04999998 2.85899999 6 -0.47117666117637025 -0.6152793060392177 1.3787544070876532
C 3.24726350 2.20799999 0.26909167 6 -0.5184821421493225 -1.6803978188543902 1.7308959466559226
C 2.69326352 4.64699997 0.87209168 6 0.469716107537007 1.0179801726636264 -1.3050031339326678
C 0.09000001 3.60100003 2.29700000 6 3.54991059147489 6.925698503724064 0.8080554152132943
C 2.23826351 2.21899999 1.40709166 6 -2.7984171730637377 -6.689394296140811 -1.4583041810468005
C 1.05600000 0.72799997 3.39900000 6 -0.24833371820943093 0.02792485988161352 0.0798650272622916
C 3.43500000 1.08500001 2.88400001 6 -0.8701572302560066 0.4278918169472705 0.6133764720724417
C 1.34326350 5.10900000 0.28309169 6 -1.1084624991810774 -1.408324446931352 1.18210371653366
C 0.85926349 1.76999998 0.78709166 6 1.0410600058422679 0.8060738964905948 -0.22652775522962845
C 2.06099999 0.65700002 2.34000001 6 3.0331435712929182 6.974380196506501 -0.8097093379260379
C 0.30826348 5.08499999 1.38509168 6 -2.8238873771282105 -6.249791821826659 -0.6160013543876915
28
energy=-206.08386592366602 config_type=Crystalline_RSS dft_virial = "0.007219340026604116 -7.750949379542583e-05 -0.009950928437227072 -7.750949379542583e-05 -0.0007686801724044302 1.308281444624283e-05 -0.009950928437227072 1.308281444624283e-05 0.03859161258839266" Lattice="8.92952232 0.00000000 -0.32207128 0.00000000 2.55569283 0.00000000 -0.03263420 0.00000000 7.51775817" Properties=species:S:1:pos:R:3:Z:I:1:force:R:3
C 4.15321557 2.08775777 5.90313420 6 -1.0847490737194447 -2.0821873822925485 1.1361348478525053
C 7.72614071 0.92915911 4.44358177 6 0.7727876733377272 0.636510818872834 -1.3056629544676335
C 8.10119363 2.23734934 3.60102473 6 -0.7276195377609699 -0.40722704006808325 1.3613882186038444
C 2.64225672 0.24159337 0.08310123 6 0.30316773605796 0.15334476086742352 -0.579040090281694
C 1.17074741 0.92915911 2.75210512 6 -0.6981446396156096 0.6193529135664697 1.3638161318895605
C 1.66141728 2.27410580 4.93953456 6 -0.6209255801260376 0.6591308862227463 1.7146056307825182
C 0.53097811 1.96648388 0.55316199 6 -0.30775613731514256 1.928199772112025 0.01283024373057504
C 8.36591099 1.96648388 6.64252591 6 0.2272112326193164 1.8891150481549954 -0.008470696828856079
C 0.27891094 0.80991186 1.45358827 6 1.0965224731792835 -2.0151309990239117 -1.1770277783574226
C 1.78987078 1.51943928 7.27362128 6 -0.3165595729484592 0.06498332280375184 0.5629750288075996
C 1.25113647 1.03625253 5.76772051 6 -0.26508379991156455 -0.7967890952916288 -0.9530179353173442
C 7.64575272 1.03625253 1.42796739 6 0.271204239651727 -0.8426401939786237 0.9815301023314059
C 8.61797718 0.80991186 5.74209757 6 -1.0648973726514663 -2.002024587228429 1.1091732333816409
C 5.26045619 0.95950344 3.43362651 6 0.786846530675499 -0.43222102136141116 -1.331181500800451
C 7.23547084 2.27410580 2.25615225 6 0.6056879942877657 0.6879680778495113 -1.7914492662732397
C 3.26138009 2.20700604 4.60461837 6 0.7423958149321611 0.578203357615763 -1.3771812262486347
C 3.63643291 0.95950344 3.76206035 6 -0.7783768624055438 -0.4442376750013268 1.3718615196128696
C 7.10701734 1.51943928 -0.07793537 6 0.3231084074708715 0.07681740723874712 -0.6383539964233542
C 5.63550804 2.20700604 2.59106844 6 -0.7909756803834029 0.5597206684449623 1.3442555129905538
C 6.12617791 0.99625990 4.77849797 6 -0.6103365662406544 0.6814423859023706 1.7566279189606893
C 4.99573883 0.68863798 0.39212532 6 -0.26490843061895086 1.8652385961075604 -0.00283727972829816
C 3.90115037 0.68863798 6.80356153 6 0.28936344704817585 1.8446735894417663 -0.00436057546061992
C 4.74367156 2.08775777 1.29255362 6 1.088722396753853 -2.035372009635904 -1.1010815605077886
C 6.25463247 0.24159337 7.11258660 6 -0.2962686772297708 0.1503053693150867 0.6267395093137139
C 5.71589710 2.31409946 5.60668384 6 -0.280358413870271 -0.8104036151841859 -0.9666627976974795
C 3.18099103 2.31409946 1.58900200 6 0.2805065263520093 -0.8221019298442546 0.9386839384735657
C 2.77071021 0.99625990 2.41718795 6 0.5759821846691399 0.6893190899659223 -1.70871507395672
C 0.79569449 2.23734934 3.59466322 6 0.7435220869287124 -0.3935348639785037 -1.3350668820488274
6
energy=-31.248238457014175 config_type=Crystalline_RSS dft_virial = "0.02826562471757953 0.00011329812382722392 -2.0245742800995697e-05 0.00011329812382722392 0.011281411793512533 0.0005657362562645946 -2.0245742800995697e-05 0.0005657362562645946 0.028182654280170482" Lattice="2.47200000 0.00000000 0.00000000 0.00000000 6.06700000 0.00000000 0.00000000 0.00000000 2.47000000" Properties=species:S:1:pos:R:3:Z:I:1:force:R:3
C 2.44799999 0.17600003 1.35099999 6 0.28875351161990653 -5.542113469758052 0.4960893863165224
C 2.44600000 1.00899998 0.11599999 6 0.04291816298090744 0.08449919939056688 0.7225549137326427
C 1.21900001 1.84800001 0.17000000 6 0.3337627348464657 5.548181452994266 -0.39075055503360495
C 1.25399999 3.23100002 0.18300000 6 0.06293391919358904 -6.810241738532403 -0.9426829754804981
C 1.26899999 4.04099997 1.38200000 6 -0.34716588588487546 0.21518583622874254 1.086866362217071
C 0.01600000 4.86200000 1.38700000 6 -0.3310900245423211 6.508417300399096 -0.9300569006917636
28
energy=-262.92284733416386 config_type=Crystalline_RSS dft_virial = "0.002151128810449549 7.60889509860998e-05 -0.006501134304293306 7.60889509860998e-05 -0.0003958072559948 -8.487715075657325e-05 -0.006501134304293306 -8.487715075657325e-05 0.08338859670404497" Lattice="6.76532123 0.00000000 -1.01867861 0.00000000 6.93313525 0.00000000 -0.20210881 0.00000000 3.36412763" Properties=species:S:1:pos:R:3:Z:I:1:force:R:3
C 0.82454871 3.45158928 0.60101064 6 -0.7767275682078546 0.3447184299800411 -0.19381495366404616
C 1.94843521 2.69877302 -0.03388301 6 0.37463766557061606 -0.4479446012803867 0.4919664079620243
C 1.03995918 1.67353010 2.54483835 6 0.14276500401214895 -0.8554555236051348 -0.1474701467045905
C 5.02690848 1.02790129 0.75236636 6 0.03929043573722152 0.2084570038986622 0.4453372044664531
C 3.56586692 6.04069508 1.21642255 6 0.0230320051897468 -0.05392168610337752 0.022936863491408
C 1.31541741 0.01497932 0.73805603 6 0.3386278184480065 -0.02354679891967728 0.4181307929771601
C 0.28426024 0.81151475 0.04369805 6 -0.012882700234524 -0.00060736403101688 0.01699333588221064
C 1.80063703 6.16533968 2.97606593 6 -0.3590853407086504 -0.39835674810620414 -0.5284000213518294
C 4.32595563 2.31572403 1.22067154 6 0.9517857217539941 0.7820483034025206 0.5938847666197992
C 2.92452354 6.91815593 2.34117425 6 0.8242917317443982 0.37355973584241 0.16046598841822007
C 2.43365484 3.48154694 2.20412786 6 -0.34146406961740366 -0.01795452417515776 -0.4504645705877387
C 2.10482435 1.02790129 1.68047873 6 -0.02428787560781896 0.17512655271305344 -0.45977919999483247
C 4.20720929 6.91815593 0.09167084 6 -0.8317518694530612 0.3601375564643325 -0.12626691924075056
C 6.18843886 5.78229158 0.70283373 6 -0.990747532922359 0.818626943597361 -0.6045416653926458
C 6.09177466 1.67353010 -0.11199324 6 -0.1592774886081608 -0.8707512230213109 0.13181753734978122
C 5.33109580 6.16533968 -0.54322084 6 0.37357053571087007 -0.4127709725442576 0.47163488416674787
C 4.42261976 5.14009773 2.03549855 6 0.11231914626428248 -0.8599559830762854 -0.14483189312362807
C 1.64424782 4.49446996 1.26170521 6 0.030713797341566557 0.21567800166285192 0.4931934787308695
C 0.18320534 2.57412842 1.72576234 6 -0.02373759659580536 -0.02413822028772928 0.04618280893255448
C 4.69807900 3.48154694 0.22871724 6 0.3241683374183108 0.00494582547526616 0.44283369210151646
C 3.66692082 4.27808237 -0.46564175 6 0.01772772693749608 -0.028579023342624077 0.025866199241342078
C 5.18329762 2.69877302 2.46672810 6 -0.35378414813310255 -0.47330732093970884 -0.49107927590994616
C 0.94329498 5.78229158 1.73001135 6 1.0006042128702586 0.7559074789346223 0.6165536905175071
C 6.30718412 3.45158928 1.83183445 6 0.847006426513199 0.2815679991378 0.1744482181178703
C 5.81631542 0.01497932 1.69478906 6 -0.3390536418330039 -0.03271125872723088 -0.4334321494672916
C 5.48748501 4.49446996 1.17113988 6 -0.052755300309688884 0.2416347140874785 -0.4953045958750899
C 2.70911308 5.14009773 0.39734654 6 -0.16185454293451607 -0.8709404778590877 0.1458414236849203
C 2.80577727 2.31572403 1.21217354 6 -0.9826934024483915 0.8099304780897443 -0.5867326823019738
12
energy=-83.13030536151388 config_type=Crystalline_RSS dft_virial = "0.03302439701962213 -9.061403512616299e-05 3.0230498672902746e-05 -9.061403512616299e-05 0.029733982681547783 2.3016545449810452e-05 3.0230498672902746e-05 2.3016545449810452e-05 0.03452743791077049" Lattice="2.46197053 0.00000000 0.00000000 0.00000000 4.22228019 0.00000000 0.00000000 0.00000000 6.72507921" Properties=species:S:1:pos:R:3:Z:I:1:force:R:3
C 0.61549288 3.92003240 0.68063814 6 -0.1069726970970924 0.696465002930342 -0.03994305635988064
C 1.84647765 2.48745453 5.92301943 6 0.053896486410304006 -2.2357255122333526 -2.851280986337478
C 0.61549288 1.73482566 2.56047888 6 -0.04036167983257136 2.2677877502940778 -2.769157243728678
C 0.61549288 0.30454344 2.04182820 6 -0.005763015522078879 1.4993565381813665 0.6991629129275599
C 0.61549288 0.30539398 6.04464363 6 -0.01836851913279416 1.5856413158239997 -0.6813215302315079
C 1.84647765 0.30224779 4.04317673 6 -0.00600524114325496 -0.6648028742820902 -0.061109255703286
C 1.84647765 3.91773675 5.40436881 6 0.08989964790005736 -1.5691005458582115 0.7157551108383963
C 1.84647765 3.91688621 2.68210503 6 0.1426122630153564 -1.5720489099478134 -0.7033362906682051
C 1.84647765 2.48663706 2.16278003 6 0.040991157879958884 -2.200267486961108 2.791217260757018
C 0.61549288 1.20833202 4.04297418 6 -0.12783135732911072 -0.8558648900477169 0.00794921746606936
C 1.84647765 3.01394817 0.68043558 6 0.028291541129805756 0.8426515081265343 0.03381953094301528
C 0.61549288 1.73564313 5.52531869 6 -0.0505588127766888 2.206155986669104 2.824869650878627
6
energy=-43.62428755770416 config_type=Crystalline_RSS dft_virial = "0.004683724385751265 0.0005461137211323896 0.00017672268368673888 0.0005461137211323896 -0.007506773915702317 0.0031677013775841716 0.00017672268368673888 0.0031677013775841716 -0.007495094540678899" Lattice="4.04800000 0.00000000 0.00000000 0.00000000 4.04783329 0.00000000 0.00000000 0.00000000 2.46100000" Properties=species:S:1:pos:R:3:Z:I:1:force:R:3
C 0.74600001 1.28900001 1.17500000 6 -2.8204561046346077 3.5665989596429664 -0.7521552960639202
C 2.53226202 4.04283328 2.01400001 6 -2.3287334651321108 -2.130343995756045 0.3217126530422688
C 1.51326202 4.04383330 0.80100000 6 2.2292893049105955 -2.0714805984130056 -0.6356941431054717
C 2.76899999 2.17500000 0.33799999 6 3.9268599431754136 -0.19215691671569862 -0.80137595371046
C 3.26799999 1.39000001 1.60000000 6 2.4323638600805335 1.1874738225555723 -1.3218272718756705
C 1.24199999 2.16600001 2.38000000 6 -3.4335111520504995 -0.3681366590370984 3.017054338684652
6
energy=-28.716075789909574 config_type=Crystalline_RSS dft_virial = "0.015346785066378052 6.9961739320260665e-06 -2.1252357599893046e-05 6.9961739320260665e-06 0.002982952780488964 -1.400775893098075e-05 -2.1252357599893046e-05 -1.400775893098075e-05 0.0004011910385560692" Lattice="2.52118480 0.00000000 0.00000000 0.00000000 6.18819808 0.00000000 0.00000000 0.00000000 2.51896227" Properties=species:S:1:pos:R:3:Z:I:1:force:R:3
C 0.63029620 0.56168133 0.62974057 6 0.04465848464133176 -0.0141761130524812 -0.00493605416570704
C 0.63029620 1.68504399 1.88922170 6 0.019761187884693998 -0.5718340066215682 0.0149732462007252
C 1.89088860 2.53241771 1.88922170 6 -0.0083364698922808 0.5553153506721507 -0.047693247678614235
C 1.89088860 3.65578037 0.62974057 6 -0.04379140948782248 0.03687075092271312 0.03694069292797839
C 1.89088860 4.77914296 1.88922170 6 -0.04558470193164624 -0.6370718977533076 -0.03294782727445168
C 0.63029620 5.62651675 1.88922170 6 0.03322656673661184 0.6339080505739546 -0.00935937171928552
20
energy=-178.81212933574253 config_type=Crystalline_RSS dft_virial = "-0.023462441666893027 -6.573298329977327e-05 0.00441307806525934 -6.573298329977327e-05 -0.016471999432182572 -5.232335464462989e-05 0.00441307806525934 -5.232335464462989e-05 -0.01969725814803966" Lattice="3.75285396 0.00000000 -1.62674456 0.00000000 4.98672783 0.00000000 0.75360242 0.00000000 6.60037422" Properties=species:S:1:pos:R:3:Z:I:1:force:R:3
C 2.87282396 3.73812568 2.74513460 6 -0.28733924313108655 -0.48720263741222797 0.25653133265008216
C 2.49602324 1.24860314 -0.55505203 6 -0.2917913603338919 0.49548150800605506 0.2622732627146913
C 1.37238478 4.84556114 1.25251771 6 -1.542465498838402 0.5373124842286477 -0.15237174414711535
C 1.61003020 1.31016101 2.02177939 6 -2.042213469165639 -0.7949263751219903 -0.027695491246699438
C 1.27804556 2.40639623 4.78275121 6 1.5093536164192471 -1.390496949780463 0.016739796113123998
C 3.21706801 1.28122482 1.54212391 6 2.4049090516166594 -0.5842317413342896 -0.06807671369838904
C 1.71744273 1.21213959 5.65568385 6 2.39447483584587 0.5399209096014823 -0.11632795458077407
C 1.98683088 3.67656682 5.32196701 6 -2.0442839582332715 0.7522766660142334 -0.024819640559615278
C 0.99639796 1.24476127 3.55850791 6 -0.2959302813513549 -0.4822326408027893 0.2529894900746264
C 2.77767084 0.08696818 0.66919335 6 1.4954680712562871 1.3827421299466751 -0.00571724465098616
C 3.62561248 2.63453210 3.73933206 6 -1.5563129873220263 -0.5215765616028607 -0.10896193001154904
C 0.61959626 3.74196656 0.25832025 6 -0.29075714435897665 0.48813091182034435 0.24366920359357733
C 3.24881074 2.35219673 0.43914442 6 -1.537040879194739 0.5143663637071312 -0.17344897314558766
C 3.48645717 3.80352547 1.20840808 6 -2.0565891226449065 -0.7897974661623532 -0.03616824519335744
C 3.15447151 4.89975965 3.96937993 6 1.4971842217825388 -1.3812044343897396 -0.01192562617718072
C 1.34064206 3.77458924 2.35549623 6 2.3673975084986476 -0.5251904033013837 -0.07549056625650871
C 3.59386971 3.70550301 4.84231053 6 2.364792168802516 0.5474659034194743 -0.07727254455242191
C 3.86325789 1.18320341 4.50859471 6 -2.0579247063778032 0.8332139659307758 -0.030994593921528635
C 1.74918550 0.14116669 4.55270434 6 -1.5382972638922614 -0.5178156359815005 -0.1761741399536812
C 0.90124386 2.58033160 1.48256459 6 1.4863216112295004 1.3836992040040184 0.00517673694853168
20
energy=-176.10288223232993 config_type=Crystalline_RSS dft_virial = "-0.0068959475781399 3.3210105358905325e-05 0.0003395964392346999 3.3210105358905325e-05 0.06797713007801819 -1.8070588146885663e-06 0.0003395964392346999 -1.8070588146885663e-06 0.006206493401784111" Lattice="6.90006012 0.00000000 -0.21938627 0.00000000 3.24321715 0.00000000 0.16607462 0.00000000 5.22049373" Properties=species:S:1:pos:R:3:Z:I:1:force:R:3
C 6.44953374 2.19678924 1.62351581 6 1.116997995220694 0.6370322982356207 -2.108879000051911
C 5.00083396 0.57518018 0.62530914 6 -1.0784954356016079 0.6452859691363743 2.1000488218871696
C 4.00016910 1.62178154 1.17925806 6 -0.008861549211220881 -0.006939172625326641 -0.014398281775088558
C 4.08320638 1.62143561 3.78950639 6 -0.01708899185999992 -0.04228457069791608 0.01813657910062768
C 3.04936937 0.57494891 3.30011907 6 1.2387551979601856 0.6651757268836882 2.0290484295128017
C 5.11704438 0.57494891 4.27889171 6 -1.2098701783445258 0.6661749718559709 -2.053831041951982
C 5.08387125 2.66803794 3.23555548 6 -1.077980127592227 -0.6302885518014765 2.0790986199129655
C 5.03400701 2.66826921 1.66864536 6 -1.2052668629832795 -0.6392529569027933 -2.0051442063750406
C 2.99950416 0.57518018 1.73320898 6 1.1053084233112838 0.6342798746166517 -2.0729591518331354
C 6.41636165 1.04666113 0.58017960 6 1.2429069759639106 -0.6360623671920155 2.0354342374494117