8
energy=-63.44117244032426 config_type=Diamond dft_virial = "0.007177649087463543 0.00010204177433186726 -1.3249963027913126e-05 0.00010204177433186726 0.007179848820221781 0.00014094536733627898 -1.3249963027913126e-05 0.00014094536733627898 0.007170578926498172" Lattice="3.61594544 0.00000000 0.00000000 0.00000000 3.61594544 0.00000000 0.00000000 0.00000000 3.61594544" Properties=species:S:1:pos:R:3:Z:I:1:force:R:3
C 0.45538378 0.45564923 0.45308784 6 -0.2206742265242651 -0.07570810646406176 -0.12587298118168289
C 1.35301635 1.36042817 1.35757099 6 0.2454136394896055 -0.2123094712622079 0.13278643983448551
C 2.25828557 2.26113678 0.45622196 6 -0.08676562892883223 -0.016255344870771838 -0.3391888973284802
C 3.16477727 3.15936702 1.35293173 6 0.12427820060574439 0.16744013204617936 0.12226273943931326
C 2.26266589 0.44910682 2.26001627 6 -0.13955127172609944 0.012365335107341119 -0.1719848195500711
C 3.16348211 1.35487035 3.16199249 6 0.054544992797359276 -0.00027873946216016 0.2225955745512584
C 0.45300221 2.25751386 2.26095587 6 -0.20757758603834142 0.17566603185660695 -0.05703307677878152
C 1.35219263 3.16635614 3.16133392 6 0.23151369450203207 -0.05132097492230016 0.21608016819312725
32
energy=-287.67246115888616 config_type=Diamond dft_virial = "-0.02045866787180119 2.2605826949391055e-05 -9.669649879380446e-05 2.2605826949391055e-05 -0.02020872894093954 -2.1749262675889108e-05 -9.669649879380446e-05 -2.1749262675889108e-05 -0.05645191951802475" Lattice="5.18640484 -0.00000000 0.00000000 -2.59320242 4.49155835 -0.00000000 0.00000000 0.00000000 8.66016901" Properties=species:S:1:pos:R:3:Z:I:1:force:R:3
C 0.00265946 1.50239712 0.27650846 6 -0.20303289853444967 -0.19776153416702968 -0.8869803396401084
C -0.00308601 2.99728354 4.04840168 6 0.058343975098055036 0.00045719443147672 1.114273342692051
C 2.59412749 1.49812547 4.61271527 6 -0.08260562245389952 -0.1788123935346436 -1.1222981592373409
C 2.59081061 1.49545456 1.89132384 6 0.04449391521717816 0.0711659903574224 0.7148952355971937
C -0.00164653 2.99293338 2.44601875 6 -0.00399389421242768 0.16473193645995168 -1.0763766042656302
C 0.00397592 2.99490899 8.38541172 6 -0.11590470259302903 0.05192782467386656 0.8491381148354386
C 2.59200887 1.49881982 0.27324643 6 -0.0196994743506364 -0.13975852634464286 -0.7721849378217647
C -1.29890296 3.74406822 6.21894011 6 0.18459443739639023 -0.14843390639478998 0.8624970378411071
C 3.89260766 0.75311809 6.77133696 6 -0.08728813685051992 -0.19996265021508408 -0.8537897724650301
C 1.29499104 3.74181458 6.21830532 6 0.1528669952579276 0.15027091259190456 0.9511901861503382
C 1.29967872 0.74849547 6.77584657 6 -0.13475561585037343 -0.08896520213853519 -1.0104968923796918
C 0.00180095 1.49822186 6.21816243 6 0.051655256565112155 0.01273407347333528 0.9563844086001863
C 2.59405395 2.99334018 6.77614725 6 -0.11306999426198329 0.04518613535752424 -1.028670499600754
C 3.89205505 0.75031374 4.05309870 6 -0.1423705516736308 0.02292709218184888 0.9983331548169389
C -1.29445676 3.74027456 4.60711751 6 -0.2655908794497378 0.10987117607999768 -1.0154859173287984
C 1.29332701 0.74621264 4.04866954 6 0.10088877119791399 0.18546871246220625 1.073321784329779
C 1.29362520 3.74846434 4.60938370 6 0.14857687608202344 -0.2765198320518883 -1.0174849215528141
C 2.59169248 2.99018728 4.05024015 6 0.03504763027076152 0.1573746546413848 1.058966702028531
C -0.00490561 1.50262911 4.60851821 6 0.17313320556299294 -0.1073275499179236 -0.9957370721509159
C -1.29653205 3.74638039 1.88838051 6 -0.019752445134035842 -0.22359944803859533 0.8842726583333311
C 3.88859608 0.74649224 2.44028762 6 0.00656272006757528 0.133429803427036 -0.8598963266600297
C 1.29635906 3.74729986 1.88659747 6 -0.0749613727019648 -0.21159462282604072 0.9482140509704106
C 1.29857365 0.75096071 2.43850458 6 -0.10882924591332518 -0.10989689005252168 -0.7810274586933178
C -0.00084157 1.49760238 1.88410490 6 0.06204678714151104 -0.05554835200524576 0.9574062818682901
C 2.58974179 2.99095898 2.43782744 6 0.10480963772837351 0.23083330278904704 -0.7357353817689947
C 3.88643345 0.74919409 8.38263363 6 0.16654014300783934 0.08069918853097015 0.8342744101576656
C -1.29720312 3.74406876 0.27940390 6 0.05736478702434112 0.009240573166224638 -0.8766227515074411
C 1.29352100 0.74706213 8.38420389 6 0.10087128569659766 0.14368813562576055 0.8534678335290298
C 1.29509710 3.74108192 0.27561724 6 0.09125991704657695 0.08331429953666096 -0.8437597803423187
C 2.59373374 2.99341285 8.38284225 6 -0.06114885522097296 0.025230035561098315 0.9381079454890281
C 0.00375752 2.99146711 6.77490556 6 -0.14534514401520712 0.11413609556282833 -0.9578233625026293
C 2.59405973 1.49484712 6.22225029 6 0.04226297096099592 0.1427207759794077 0.8385295583309371
8
energy=-63.62964538022519 config_type=Diamond dft_virial = "0.0026816436496264794 1.826040198828422e-05 -1.228074950626982e-05 1.826040198828422e-05 0.002682002527122897 4.8734058246290384e-05 -1.228074950626982e-05 4.8734058246290384e-05 0.002658691864486978" Lattice="3.66246628 0.00000005 0.00000005 0.00000005 3.66246628 0.00000005 0.00000005 0.00000005 3.66246628" Properties=species:S:1:pos:R:3:Z:I:1:force:R:3
C 0.45838744 0.45950025 0.45991715 6 -0.07427532391502448 -0.08278202030541415 -0.14895949999318056
C 1.37289918 1.37544830 1.36844262 6 0.0024582557732944 -0.044999966196450476 0.21152468082077544
C 2.28832981 2.28726758 0.45527637 6 0.09283875495955056 0.1760450558116107 0.02530460608141792
C 3.20598940 3.20876072 1.37389777 6 -0.00146158219826416 -0.16653191453663166 0.09626437037919784
C 2.28728015 0.46153908 2.29168957 6 -0.036655267832961996 -0.17325920402836056 -0.2481629774318716
C 3.19993241 1.36840191 3.20302980 6 0.23983010749574413 0.14276551829159945 0.11189537999708696
C 0.46007567 2.28525531 2.29033417 6 -0.1440188173124192 0.2269150076558399 -0.07955800243035505
C 1.37474936 3.20619831 3.20559931 6 -0.07608301618346168 -0.08235053984646144 0.03378661705818456
32
energy=-288.6248811810985 config_type=Diamond dft_virial = "0.006828347568121045 0.00019241238633081783 -7.714200454828762e-05 0.00019241238633081783 0.007012584238989459 9.868419932427627e-05 -7.714200454828762e-05 9.868419932427627e-05 -0.029955442547127013" Lattice="5.08471063 -0.00000000 0.00000000 -2.54235531 4.40348858 -0.00000000 0.00000000 0.00000000 8.49036177" Properties=species:S:1:pos:R:3:Z:I:1:force:R:3
C -0.00555197 1.47068834 0.27415803 6 -0.44196095987405193 0.45357647554259317 -0.8424061968286554
C 0.00221653 2.95227576 3.96665958 6 -0.5455810692334652 0.042402854971526474 1.5908190813314325
C 2.52273047 1.46937245 4.52782639 6 0.26077259527819074 0.4463899345015857 -1.2532491357130633
C 2.51801232 1.46453152 1.85893737 6 0.6007092549276687 0.2981951680512689 0.7530388281598448
C -0.00871707 2.96773007 2.40576354 6 0.02711692686490944 -0.32530078076826774 -1.260793615251605
C -0.01900034 2.94873818 8.22077444 6 -0.20048001534226695 -0.15053885218560464 1.0995844930274412
C 2.53569175 1.48141458 0.26742568 6 -0.4888195320045371 -0.7429136943387945 -0.639001988530959
C -1.28124543 3.68638337 6.08249823 6 -0.19828147069146496 -0.2534677699635728 1.7900576260802408
C 3.80159692 0.74035889 6.64598673 6 -0.3614510261808584 0.01962336099196536 -1.1683606267784832
C 1.24819342 3.67527905 6.11462542 6 0.23522782069339865 0.11943780241782663 0.5912953695866324
C 1.25665112 0.74984854 6.66004931 6 -0.16296590082700335 -0.1463351319573811 -1.8103454361222262
C -0.02630384 1.46552851 6.09155761 6 0.4455532018356547 0.45783676651036953 1.55299537058698
C 2.52046000 2.94624351 6.64492543 6 0.1407372001389063 0.2510367710011538 -1.1944078523863941
C 3.80621775 0.74375988 3.97772362 6 -0.23854955166404895 0.02470701335996016 1.105055912101098
C -1.27756898 3.67380877 4.52920599 6 -0.05600966067232632 0.5999805209463386 -1.473809192199322
C 1.25477054 0.75678016 3.97833960 6 -0.22277351524112446 -0.6689927089651507 1.1407808484081416
C 1.26637716 3.68384507 4.52357891 6 0.10324828531671623 -0.22784533918175826 -0.967979867370159
C 2.53386062 2.94249311 3.98830227 6 -0.06763906188603055 -0.20552715386927767 0.6959934086742517
C -0.02469133 1.48550785 4.53204482 6 0.5789506056573105 -0.08016485218192144 -1.4979587266349619
C -1.28373724 3.68893211 1.85640758 6 -0.37935206529316623 -0.613805381134142 1.0752333610472133
C 3.82284903 0.75555445 2.39894195 6 -0.867780230635888 -0.3445271180244625 -0.8577255530995536
C 1.27392549 3.68567441 1.85870117 6 -0.47755989771572804 0.06897207422167471 0.9075360892757939
C 1.25472214 0.74260101 2.40122620 6 -0.22539119764406768 0.17414633608043856 -0.9418241287981964
C -0.01753973 1.49092555 1.86114138 6 0.6134890992720967 -0.015626895382285278 0.7384908910646665
C 2.51576058 2.92524623 2.39279536 6 0.715695968701591 0.6893242327604271 -0.6110215864686938
C 3.81154111 0.73571431 8.21678100 6 -0.31715407999321404 0.448785962461372 1.1119925133291724
C -1.29645212 3.67622012 0.28245353 6 0.0037388116049896 0.048160727699100556 -1.1184708915668689
C 1.24348472 0.74308962 8.22728910 6 0.7878437185299798 -0.09486295887663983 0.8279086591196241
C 1.24487796 3.68263380 0.27877415 6 0.41537271228423595 -0.43101040753498127 -1.1187630022947415
C 2.51281384 2.92861930 8.22304876 6 0.3862418670912468 0.7025587001390794 1.0176618336837793
C -0.02107744 2.94056715 6.64257021 6 -0.01550655399087296 0.006548320242961839 -0.9692398520238348
C 2.52377268 1.49345328 6.08813753 6 0.055535495018983756 -0.6303955219271763 1.7057348245411883
8
energy=-53.80019112275026 config_type=Diamond dft_virial = "0.056535620466887454 -2.677570131895004e-07 -0.0031125517903812135 -2.677570131895004e-07 0.04722216578935744 1.7459762408953186e-06 -0.0031125517903812135 1.7459762408953186e-06 0.0630299173002399" Lattice="3.24292500 0.00000000 0.00000000 0.00000000 3.32027300 0.00000000 0.04888700 0.00000000 3.18963600" Properties=species:S:1:pos:R:3:Z:I:1:force:R:3
C 0.00000000 0.00318082 0.00000000 6 0.014252226411152239 -0.19973328158017 -0.03060631293641624
C 0.82295300 0.82688743 0.79740900 6 -0.07002583281570823 0.10658698750923239 -0.053258779891708796
C 1.62146250 1.66331732 0.00000000 6 0.0432971869359112 -0.0607698312659692 -0.0019362621310572
C 2.44441550 2.48702393 0.79740900 6 -0.01880359954790024 0.13122457314337777 0.06856167922019167
C 1.64590600 0.00318082 1.59481800 6 -0.023655311883728557 -0.01351989247366872 0.029702723941922877
C 2.46885900 0.82688743 2.39222700 6 0.047219082025271676 0.08029805055959575 0.0425977668832584
C 0.02444350 1.66331732 1.59481800 6 -0.03024940299778312 -0.09531809619031464 0.0042196628911884
C 0.84739650 2.48702393 2.39222700 6 0.037938395061909595 0.051408402428881755 -0.05927122094727048
8
energy=-56.15439920534169 config_type=Diamond dft_virial = "0.044979870431283986 0.0012574575073435977 -0.0007469098754458314 0.0012574575073435977 0.05192679594947059 -4.836035413768353e-05 -0.0007469098754458314 -4.836035413768353e-05 0.045396911094813884" Lattice="3.32027300 0.00000000 0.00000000 0.00000000 3.26257100 0.00000000 0.00000000 0.00000000 3.31532200" Properties=species:S:1:pos:R:3:Z:I:1:force:R:3
C 0.00993426 3.25980760 0.01295296 6 0.9952382210839502 0.659394197301392 -0.883428211475643
C 0.86052843 0.81096096 0.82414927 6 -0.7516718733804689 1.6245074710145755 0.3516144031315274
C 1.69172226 1.64663263 3.30593301 6 -2.096225668452301 0.21528406360378421 -1.1623774996515988
C 2.50105540 2.43765929 0.81951445 6 1.9483399839517226 -1.0942375295808007 0.8636310240294154
C 1.66497414 3.22430430 1.62316176 6 0.06756294852735953 1.4403224000607673 0.5022854251359054
C 2.47895899 0.79538545 2.49277735 6 -0.7317754300002987 -1.8794100806449874 0.5043975708390268
C 3.30211443 1.60303816 1.68697508 6 0.8947063598246695 -0.422184857885294 -1.703269883135038
C 0.82555268 2.44827895 2.45799631 6 -0.3597791036873479 -0.49367638713487016 1.5484409117735292
8
energy=-56.144013262647086 config_type=Diamond dft_virial = "0.04416110142859428 0.01851525182305097 0.0069603338848731895 0.01851525182305097 0.046954172265118756 -0.016894033309937728 0.0069603338848731895 -0.016894033309937728 0.03892664008014168" Lattice="3.32027300 0.00000000 0.00000000 -0.25150100 3.31073400 0.00000000 -0.15255200 0.25971400 3.38432800" Properties=species:S:1:pos:R:3:Z:I:1:force:R:3
C -0.24156643 3.30797050 0.01295521 6 2.3333336948166545 0.5473018482747712 -2.3742389680283833
C 0.75951357 0.88792874 0.84139809 6 -2.4951013245240397 1.5278594481653196 1.423249350863732
C 1.41341927 1.93042755 3.37493987 6 -0.45522114122522817 -0.8718353241029227 -2.6357289831399933
C 2.27429223 2.53870933 0.83676833 6 -0.32378365638935175 -0.5427134470175887 2.577463692797862
C 1.33719824 3.40232329 1.65766416 6 2.703752726054983 0.5906309205366121 -1.2865487301316434
C 2.30167026 1.00221285 2.54453070 6 -2.452968980543466 -1.0820182498373958 2.043438997096133
C 3.10008717 1.75697821 1.72147566 6 2.6595694356258948 0.1567852903911347 -2.9380656436059778
C 0.52251281 2.67918507 2.50974996 6 -1.9916016856055507 -0.27422820282054944 3.211520884412456
8
energy=-54.03596069789003 config_type=Diamond dft_virial = "0.035917615446843555 -8.549825701556466e-06 -0.003101364360094647 -8.549825701556466e-06 0.05928301637821563 -3.6187966171132135e-06 -0.003101364360094647 -3.6187966171132135e-06 0.0651626398211939" Lattice="3.41298100 0.00000000 0.00000000 0.00000000 3.21644000 0.00000000 0.05279400 0.00000000 3.16806600" Properties=species:S:1:pos:R:3:Z:I:1:force:R:3
C 0.00000000 0.00272111 0.00000000 6 -0.00663266207284056 0.061758790649242244 0.05468693392569175
C 0.86644375 0.80138889 0.79201650 6 0.0161560889368292 -0.07654689624779464 0.0182080639442444
C 1.70649050 1.61094111 0.00000000 6 -0.04106469984137752 0.06029257993592376 -0.019998784990815758
C 2.57293425 2.40960889 0.79201650 6 -0.02312766116753608 -0.089998903834 -0.014901247077658001
C 1.73288750 0.00272111 1.58403300 6 0.012446591260516959 0.05306181086217496 -0.01222390825845912
C 2.59933125 0.80138889 2.37604950 6 0.04687348623454912 -0.0239037088583104 0.046709431089845994
C 0.02639700 1.61094111 1.58403300 6 0.006742203595792799 0.06691392786085376 -0.05200033807638424
C 0.89284075 2.40960889 2.37604950 6 -0.011429860786918 -0.05159148591325264 -0.02047192208525736
8
energy=-55.20642229765311 config_type=Diamond dft_virial = "0.04502606787778644 -0.0030145167447458796 -0.010183365624801273 -0.0030145167447458796 0.04970200786409566 0.021243045701572275 -0.010183365624801273 0.021243045701572275 0.049659655246300095" Lattice="3.32027300 0.00000000 0.00000000 0.04727500 3.28502600 0.00000000 0.12867100 -0.28941400 3.30513100" Properties=species:S:1:pos:R:3:Z:I:1:force:R:3
C 0.05720863 3.28226241 0.01295281 6 -1.4106402472968635 1.4100935682410034 0.4743929648596722
C 0.90451499 0.74422131 0.82159938 6 1.9188167435380175 0.6281229210355052 -0.5343265777391608
C 1.84403031 1.36844761 3.29574112 6 -4.540229215335549 2.081700359652944 -0.12646440254973487
C 2.56867967 2.38214654 0.81696889 6 4.746910412291704 -2.5948864520212234 -0.38497262540746213
C 1.77658646 3.10205370 1.61806654 6 -3.055399528791891 3.5430048470138447 1.9149138767883247
C 2.58728196 0.58393866 2.48513461 6 1.9501677331187286 -3.7410559205114944 -0.635226148805535
C 3.39008544 1.46956014 1.68187871 6 -1.6588757381312529 -0.04903088852931272 -0.73619103336212
C 0.95751190 2.24806114 2.45035141 6 2.013108337945174 -1.2262926640367038 0.054529050134394394
8
energy=-57.084893151604014 config_type=Diamond dft_virial = "0.03757675488767201 0.01697047626210471 2.8313893358272195e-07 0.01697047626210471 0.04646867779656913 7.28966228371233e-06 2.8313893358272195e-07 7.28966228371233e-06 0.043881663287829505" Lattice="3.37674200 0.00000000 0.00000000 -0.24643100 3.31111500 0.00000000 0.00000000 0.00000000 3.32027300" Properties=species:S:1:pos:R:3:Z:I:1:force:R:3
C 0.00000000 0.00000000 0.00000000 6 0.05556326610930968 -0.1346944165957663 -2.0995401995106446
C 0.78257775 0.82777875 0.83006825 6 -0.10952763740707702 0.054208139757294875 2.066537858614442
C 1.56515550 1.65555750 0.00000000 6 0.09248853065377367 -0.01674648174598024 -2.0775398388985606
C 2.34773325 2.48333625 0.83006825 6 -0.06186730361329351 0.07955440247420167 2.1021475963245786
C 1.68837100 0.00000000 1.66013650 6 -0.05762706954408592 0.0708857080569108 -2.042529236748234
C 2.47094875 0.82777875 2.49020475 6 0.09417125301574424 -0.0553261832826384 2.075735232306826
C -0.12321550 1.65555750 1.66013650 6 -0.08042199190716144 0.09204367892910847 -2.0712589439698483
C 0.65936225 2.48333625 2.49020475 6 0.06715615348202984 -0.08982302026193584 2.046418732232214
8
energy=-57.2109139355975 config_type=Diamond dft_virial = "0.027647426121993283 0.0011591898861231572 -0.01107441815944205 0.0011591898861231572 0.05185294718350979 -0.0002668617655432003 -0.01107441815944205 -0.0002668617655432003 0.044658531373422516" Lattice="3.46363200 0.00000000 0.00000000 0.00000000 3.25014200 0.00000000 0.16099000 0.00000000 3.31636700" Properties=species:S:1:pos:R:3:Z:I:1:force:R:3
C 0.00993561 3.24737613 0.01295373 6 1.0680139061213751 1.9776575125852358 -0.9660343482089929
C 0.93661596 0.80785205 0.82440904 6 -0.6084604748053033 -0.05523001302539864 0.48635664771618836
C 1.92438883 1.64042142 3.30697837 6 -1.88487687120359 1.597258888610343 -0.7494584146256029
C 2.64882457 2.42833710 0.81977608 6 1.6464363467830427 -2.325120137713039 0.49197309359488045
C 1.81715147 3.21187483 1.62368665 6 -0.1620340264627336 2.662984251177082 0.5987436788679342
C 2.70722036 0.79228062 2.49355977 6 -0.5533533745685694 -3.059873245731616 0.5192016191005441
C 3.52596662 1.59682402 1.68749687 6 1.0794890234999353 1.0907862001886295 -1.8949624055069532
C 0.98213615 2.43895856 2.45878102 6 -0.6038597308413093 -1.8419890507102605 1.5367117403464317
8
energy=-54.02216432196747 config_type=Diamond dft_virial = "0.06531798375400646 0.004457841737630079 -0.013739411295904811 0.004457841737630079 0.038345703468533734 -0.018614494618963872 -0.013739411295904811 -0.018614494618963872 0.050734815956266936" Lattice="3.15985500 0.00000000 0.00000000 -0.04632000 3.39091500 0.00000000 0.16364500 0.26142400 3.30591700" Properties=species:S:1:pos:R:3:Z:I:1:force:R:3
C 0.00000000 0.00000000 0.00000000 6 2.6648968564534172 1.5582693063516522 -1.3216035603147116
C 0.81929500 0.91308475 0.82647925 6 -2.7995269881178735 -1.751459924762816 1.1755944815289348
C 1.55676750 1.69545750 0.00000000 6 2.7917397686787053 1.7732262882249314 -1.1760892183602965
C 2.37606250 2.60854225 0.82647925 6 -2.7102835607966287 -1.5911821626234715 1.31096260420483
C 1.66175000 0.13071200 1.65295850 6 2.7394730338469726 1.8033748924504205 -1.1405843936580584
C 2.48104500 1.04379675 2.47943775 6 -2.6142485590523448 -1.6484543793467261 1.2708878923056264
C 0.05866250 1.82616950 1.65295850 6 2.6298682545223233 1.6532124928225669 -1.2574734271193062
C 0.87795750 2.73925425 2.47943775 6 -2.701932176800284 -1.7969402279660147 1.1383169355608922
8
energy=-53.82922331633335 config_type=Diamond dft_virial = "0.04683304593258176 -0.0007594380462704771 -0.01022493036443895 -0.0007594380462704771 0.06645413730882313 0.009869833066510375 -0.01022493036443895 0.009869833066510375 0.04827006813368173" Lattice="3.32027300 0.00000000 0.00000000 0.02187200 3.15793900 0.00000000 0.13049400 -0.12527800 3.31534100" Properties=species:S:1:pos:R:3:Z:I:1:force:R:3
C 0.03180561 3.15517266 0.01295304 6 0.03469997736223704 1.7874512578252082 -0.3618022790455362
C 0.89862115 0.75348207 0.82415399 6 0.46185483185696974 0.4164012711851959 0.06015578160209608
C 1.83315217 1.46904018 3.30595195 6 -3.4531787410752064 1.9452188219667597 -0.5505942653167442
C 2.55008468 2.32786757 0.81952246 6 3.386473610671247 -2.621023162253518 0.085421816724728
C 1.75209474 3.05703467 1.62317106 6 -1.4575111621341603 3.2124388732315627 1.264879051206218
C 2.58229669 0.67527055 2.49279164 6 0.5190946489748441 -3.702708159007003 0.030916937724506162
C 3.37829709 1.48808346 1.68698475 6 -0.1569035746647451 0.5977809477366356 -1.4645285052359598
C 0.93982642 2.27584726 2.45801039 6 0.6290254814710975 -1.5972254604460618 0.9603212177936108
8
energy=-56.24087788883832 config_type=Diamond dft_virial = "0.05404823965466278 -0.010826128119825026 -0.0007039522622706653 -0.010826128119825026 0.03955741727371588 3.9874458918668385e-05 -0.0007039522622706653 3.9874458918668385e-05 0.04438153735035835" Lattice="3.23812000 0.00000000 0.00000000 0.16722400 3.37295400 0.00000000 0.00000000 0.00000000 3.31943600" Properties=species:S:1:pos:R:3:Z:I:1:force:R:3
C 0.17715743 3.37018818 0.01295244 6 1.1856491590652694 0.594789898452644 0.6496434589202913
C 0.88179787 0.83855347 0.82517528 6 -0.6219664817338091 2.0233934126753237 -1.079767248682645
C 1.73425670 1.70182731 3.31004863 6 -1.5941300124336226 0.6083308763837824 0.18820519341821032
C 2.56485922 2.52044662 0.82054466 6 2.090142256832573 -1.2088560192681794 -0.6534537553688976
C 1.79112213 3.33468784 1.62521910 6 -0.4024169843677437 1.353308374157353 1.9952931835010963
C 2.45914948 0.82298054 2.49586069 6 -0.7755745536798784 -1.9847905685633938 -0.9257240963214697
C 3.30357116 1.65823188 1.68903194 6 0.5780475309422676 -0.7298216823679251 -0.21780968998509154
C 0.93043295 2.53106468 2.46108296 6 -0.49251822981238924 -0.5907286336322034 0.06367088164612687
8
energy=-54.275857113316064 config_type=Diamond dft_virial = "0.058877636176692456 0.011445043472104342 -1.979216670344675e-06 0.011445043472104342 0.054823261653292654 7.3711616537030504e-06 -1.979216670344675e-06 7.3711616537030504e-06 0.046221673466676175" Lattice="3.21766000 0.00000000 0.00000000 -0.17941100 3.25729800 0.00000000 0.00000000 0.00000000 3.32027300" Properties=species:S:1:pos:R:3:Z:I:1:force:R:3
C 0.00000000 0.00000000 3.30932274 6 -0.0078016192637816 -0.03010489047219824 0.22854835919056438
C 0.75956225 0.81432450 0.84101851 6 -0.043981178605049596 0.015538439316802719 -0.23584392747507368
C 1.51912450 1.62864900 3.30932274 6 0.07379550118772664 -0.01462713613055216 0.23715842575050056
C 2.27868675 2.44297350 0.84101851 6 -0.01800543784075528 0.04000116993778488 -0.24124180458731173
C 1.60883000 0.00000000 1.64918624 6 0.00341070131558336 0.02399165064434248 0.28172434009074593
C 2.36839225 0.81432450 2.50115501 6 0.03528419881798232 -0.04794010181484464 -0.3032613349179473
C -0.08970550 1.62864900 1.64918624 6 -0.039452948043573195 0.041035900192150636 0.26163915615224953
C 0.66985675 2.44297350 2.50115501 6 -0.0033160738966950404 -0.027841032331185275 -0.2289340687784244
8
energy=-52.96357654495245 config_type=Diamond dft_virial = "0.04782411316440355 0.0016297906683455231 -0.0010987992683201533 0.0016297906683455231 0.06250158681741004 -0.008653707528080427 -0.0010987992683201533 -0.008653707528080427 0.06259606598854907" Lattice="3.32027300 0.00000000 0.00000000 0.00000000 3.19970200 0.00000000 0.00000000 0.10402700 3.19771500" Properties=species:S:1:pos:R:3:Z:I:1:force:R:3
C 0.00993426 3.19693651 0.01295394 6 2.3115565314860786 1.0893529033601417 -1.0296867157949026
C 0.86052843 0.82124918 0.79474730 6 -1.73389316729332 1.910121820868752 0.36120777200078136
C 1.69172226 1.71922552 3.18832651 6 -1.2589499234216341 0.3615729104106222 -1.222040601540135
C 2.50105540 2.41651465 0.79011381 6 1.2051490929891195 -1.2153919968043296 0.8902547569013146
C 1.66497414 3.21345112 1.56436055 6 1.2768206200463639 1.148538239639182 0.44889344686652227
C 2.47895899 0.85768807 2.40456976 6 -2.1839442572028727 -2.1185042542470947 0.6572563376257468
C 3.30211443 1.62361764 1.62817095 6 2.009312441321181 -0.34773673607490824 -1.9223477862450131
C 0.82555268 2.47914795 2.36979141 6 -1.6604108622909357 -0.7850820378809021 1.8310708979765702
8
energy=-59.43924097596037 config_type=Diamond dft_virial = "0.03014248965896143 0.013444356754085326 4.437507348266574e-07 0.013444356754085326 0.025378164616171536 6.011791553012406e-06 4.437507348266574e-07 6.011791553012406e-06 0.041413596402255864" Lattice="3.42485900 0.00000000 0.00000000 -0.22102000 3.47727200 0.00000000 0.00000000 0.00000000 3.32027300" Properties=species:S:1:pos:R:3:Z:I:1:force:R:3
C 0.00000000 0.00000000 0.00000000 6 0.04257051007238296 -0.11320524975745952 -1.5354260417202317
C 0.80095975 0.86931800 0.83006825 6 -0.08960085153932848 0.045961154489397596 1.4965506294995474
C 1.60191950 1.73863600 0.00000000 6 0.1023518962345296 -0.00209620304015648 -1.5112554218271221
C 2.40287925 2.60795400 0.83006825 6 -0.06597536786372776 0.06485629577948328 1.5355643828924108
C 1.71242950 0.00000000 1.66013650 6 -0.0588052837651356 0.07374664463993104 -1.4361032514490293
C 2.51338925 0.86931800 2.49020475 6 0.08429914468433015 -0.04668165999952008 1.4733108554118068
C -0.11051000 1.73863600 1.66013650 6 -0.07712854630628752 0.05315283832490991 -1.4745466689313103
C 0.69044975 2.60795400 2.49020475 6 0.06224478472994583 -0.07568239249153776 1.4518648880473404
8
energy=-54.57109748280492 config_type=Diamond dft_virial = "0.0337414425189073 -9.602634303607027e-06 -8.648619450475452e-07 -9.602634303607027e-06 0.053420228195153026 0.009616695701013665 -8.648619450475452e-07 0.009616695701013665 0.06531599126947242" Lattice="3.42305000 0.00000000 0.00000000 0.00000000 3.26031900 0.00000000 0.00000000 -0.15470500 3.16391200" Properties=species:S:1:pos:R:3:Z:I:1:force:R:3
C 3.41103167 0.00000000 0.00000000 6 0.7245379752936937 -0.0750950853590896 0.043513698584563276
C 0.86778083 0.77640350 0.79097800 6 -0.7598633164677143 0.00332687376515512 -0.00430709039777
C 1.69950667 1.63015950 0.00000000 6 0.7274210258930844 -0.02064369142171768 -0.0213580255784344
C 2.57930583 2.40656300 0.79097800 6 -0.7808870604033368 0.01269653107345024 0.013693204648480478
C 1.69950667 -0.07735250 1.58195600 6 0.6940401753213287 0.0281773710917992 -0.0066804900617352
C 2.57930583 0.69905100 2.37293400 6 -0.628345604037563 -0.00741385255811968 0.01244710553996744
C 3.41103167 1.55280700 1.58195600 6 0.7198930032969583 0.06337825663880375 -0.030310087972939756
C 0.86778083 2.32921050 2.37293400 6 -0.6971063094050904 -0.00443000318643472 -0.00702300017575488
8
energy=-53.08469518795051 config_type=Diamond dft_virial = "0.06569965395908858 1.160652769639249e-05 0.022611127283128595 1.160652769639249e-05 0.050211585083255794 8.746916206629967e-06 0.022611127283128595 8.746916206629967e-06 0.051258555031924544" Lattice="3.16614600 0.00000000 0.00000000 0.00000000 3.29630000 0.00000000 -0.28161600 0.00000000 3.30830800" Properties=species:S:1:pos:R:3:Z:I:1:force:R:3
C 0.00000000 0.00000000 0.00000000 6 -0.01622705950099544 -2.9205107145638434 0.02007798402618968
C 0.72113250 0.82407500 0.82707700 6 -0.027242925330277036 2.8906753065236965 -0.06395167822608895
C 1.58307300 1.64815000 0.00000000 6 0.07861944243322903 -2.806185364163238 -0.032896913608854154
C 2.30420550 2.47222500 0.82707700 6 -0.036369328458495116 2.8532604479423753 0.052747586117931684
C 1.44226500 0.00000000 1.65415400 6 -0.00870469397882448 -2.7701796312762323 0.032890227975997915
C 2.16339750 0.82407500 2.48123100 6 0.05011756100817696 2.7874229069713765 0.01381663171659568
C -0.14080800 1.64815000 1.65415400 6 -0.01519901487948592 -2.856341496130201 0.00453028767927832
C 0.58032450 2.47222500 2.48123100 6 -0.024993981293328 2.8219614005861624 -0.02726041083159336
8
energy=-56.82724632490182 config_type=Diamond dft_virial = "0.0444044417026428 -0.011440303706270185 -2.334983423221582e-06 -0.011440303706270185 0.045516463795292166 -4.786584863835113e-06 -2.334983423221582e-06 -4.786584863835113e-06 0.04438599419872918" Lattice="3.32027300 0.00000000 0.00000000 0.15997500 3.31641600 0.00000000 0.00000000 0.00000000 3.32027300" Properties=species:S:1:pos:R:3:Z:I:1:force:R:3
C 0.00000000 0.00000000 0.00000000 6 0.00295299260465616 -0.032911827712918076 1.4029533123505389
C 0.87006200 0.82910400 0.83006825 6 -0.01318921078701008 0.020255410436605278 -1.434803152998216
C 1.74012400 1.65820800 0.00000000 6 0.02549334663974408 0.035461625228397915 1.3810640360997588
C 2.61018600 2.48731200 0.83006825 6 0.0062808949287122395 0.00641409330638656 -1.3576082646428165
C 1.66013650 0.00000000 1.66013650 6 -0.02055780675348752 0.021313283266242638 1.3994402694243102
C 2.53019850 0.82910400 2.49020475 6 0.01238024921140504 -0.01804915159404608 -1.37041536579812
C 0.07998750 1.65820800 1.66013650 6 -0.010776211605357919 -0.02144853876171888 1.4003063160189184
C 0.95004950 2.48731200 2.49020475 6 -0.0026115110495374396 -0.01103026565389504 -1.420924293468112
8
energy=-56.486728515391704 config_type=Diamond dft_virial = "0.04328701302899674 0.0012316657641003553 -0.0007315731663317321 0.0012316657641003553 0.05079016368381513 -4.186459582012753e-05 -0.0007315731663317321 -4.186459582012753e-05 0.04451095433061405" Lattice="3.33224500 0.00000000 0.00000000 0.00000000 3.26933100 0.00000000 0.00000000 0.00000000 3.32027300" Properties=species:S:1:pos:R:3:Z:I:1:force:R:3
C 0.00993342 3.26656515 0.01295238 6 0.9795326409457416 0.653664095664144 -0.881405550396905
C 0.86352130 0.81265107 0.82538334 6 -0.740587094104823 1.5728774141425368 0.3536776922868532
C 1.69770552 1.65001501 3.31088327 6 -2.071637967924852 0.1994216282331791 -1.130552344417545
C 2.51003354 2.44272970 0.82075488 6 1.9053395362587384 -1.0668264348702168 0.8423573402808597
C 1.67096092 3.23106348 1.62563886 6 0.06373568085688736 1.4230420962451888 0.5074328481557597
C 2.48793742 0.79707598 2.49649003 6 -0.7063993390752641 -1.8267180367077076 0.49805753377350936
C 3.31408426 1.60641848 1.68944787 6 0.8903066991258131 -0.40360085566274867 -1.698924221778482
C 0.82854606 2.45334848 2.46171017 6 -0.3546136808867268 -0.5012074954076994 1.5308618115972217
8