200
energy=-1968.4628903740227 config_type=Graphene dft_virial = "0.06819344135747116 0.0010495358001636897 0.00010122283051784335 0.0010495358001636897 0.14726281684089898 -0.0022691748028545447 0.00010122283051784335 -0.0022691748028545447 -0.003499533171750796" Lattice="24.61999000 0.00000000 0.00000000 12.30599900 21.13146170 0.00000000 0.00000000 0.00000000 16.50948300" Properties=species:S:1:pos:R:3:Z:I:1:force:R:3
C 24.58975925 0.15617862 16.26152526 6 0.453207737176599 -1.768840513071238 -0.34479660045651406
C 1.19432941 0.87215438 16.34604308 6 0.5032136995440218 -0.6807254803484015 0.15924817467948343
C 2.43141966 0.19051323 16.32358061 6 -0.289577901579026 -3.4251083401091065 0.3650185827288382
C 3.66775760 0.85401619 16.43443271 6 0.8132768944740176 -0.5723287434529299 -0.14437315585379992
C 4.90060697 0.13123420 16.41224743 6 0.38448405992950613 -1.143113619995519 0.6088461843931633
C 6.17047314 0.84557185 16.47028288 6 -2.234770495293811 -0.6915541484577084 0.33750154645145525
C 7.36406690 0.11502911 16.43873937 6 1.093698050437247 -0.8817593746588354 0.2792053993422949
C 8.62583747 0.80106624 0.02024162 6 -0.8392932633149 0.00075239083605224 -0.210764575792966
C 9.84649020 0.09592944 0.04270657 6 -0.047354851800198404 -1.4483785876525364 -0.07836641694359288
C 11.08338754 0.75472283 0.14317469 6 -0.3755232547843426 1.6130560104907372 -0.20032933146327633
C 12.28980911 0.03947420 0.13529439 6 1.2810418257759035 -0.1825846333039144 -0.47952804517271497
C 13.54078694 0.75977431 0.03532485 6 -0.7863646508303992 0.5437692627294242 0.9122468890421908
C 14.77085747 0.06871085 0.06552284 6 -0.15429103505630673 -2.115129552493045 -1.3014407201791929
C 16.01364869 0.72700385 16.48020310 6 -0.6755400006492117 3.1508719088173494 0.8776096537729123
C 17.25588643 0.10751096 0.01977473 6 -0.7716655155767799 -3.104494702252514 -1.1322628378698414
C 18.45770174 0.81004965 16.46709721 6 0.5236917929826849 0.9653765847918291 0.6327838356952055
C 19.68692387 0.14240408 16.42965932 6 0.22173672786895676 -2.644672302783841 -0.02354474180187536
C 20.90921751 0.85775244 16.41802938 6 0.38563553161913083 -2.0221529706407657 -0.27896111660331685
C 22.14772862 0.14339091 16.30827648 6 0.01217865166681688 -1.3416836014587032 -0.18340079479182617
C 23.36872818 0.87396091 16.29013702 6 0.06326974367475248 -1.2761988561907334 0.264737175561941
C 25.84171583 2.27024527 16.49137936 6 -0.48768348869842676 0.838804697836944 -1.0815924264523986
C 2.45878097 2.96425002 0.00079790 6 0.33477689392281224 0.0063811794215558396 -0.00405560774648528
C 3.69134671 2.25382296 0.02214978 6 0.02026158179001104 1.5413387125624003 -0.21087977438987351
C 4.91844462 3.00800398 0.09221702 6 0.17513118122810775 -1.7008671695423954 0.7616386091307713
C 6.13933536 2.24918460 0.14847259 6 0.7195900927006256 1.1274136969312656 -0.7373630762297638
C 7.39570451 2.95624035 0.19438546 6 -0.3244943905899151 -0.5164605096294856 -0.730763328041754
C 8.62875176 2.21028053 0.07713792 6 -0.6451188283149683 1.3319328630776024 0.915429250281761
C 9.85719951 2.93355763 0.16653182 6 0.1825769191121572 -0.6214007743382811 -0.08204454357342585
C 11.06465608 2.18922767 0.16332089 6 1.809392476300487 1.1537694902094646 -0.31454205466422613
C 12.32989989 2.95931435 0.09071829 6 -1.5407292914135815 -2.06120015219791 0.655564872513118
C 13.53776120 2.20268060 0.05027319 6 -0.21995166389634072 0.08553958671888792 -0.22913052352850777
C 14.75433808 2.91994960 0.00074854 6 1.0747951949554042 0.06167187742211112 -0.35417911475107117
C 16.00025824 2.18455910 16.50018750 6 -0.36713072843195954 0.6281908059229685 0.17030981137985776
C 17.22239450 2.95228771 0.02666661 6 -0.5099615602137698 -1.6719055222886139 -0.6175483069747354
C 18.45316335 2.22557083 0.02242351 6 0.5837771183000653 1.9110747806904913 -0.5597463824174863
C 19.68897982 3.00770032 16.46390032 6 -0.8997406413654182 -2.6937309624034795 0.39554363951207855
C 20.90999174 2.23555418 16.46852809 6 0.1892697518807039 2.860677386177198 -0.19375221157108757
C 22.14444314 2.96565357 16.46311892 6 0.2640284984791796 -0.11724902907658374 0.23682671550494094
C 23.38703987 2.27444008 16.40100067 6 -0.48765623188755136 0.86536106010083 -0.31260013545921367
C 24.61439059 3.00401436 16.39380287 6 0.6232372662559452 -1.5942071543511949 0.9308236913524293
C 27.10422305 4.39607413 16.50658889 6 -0.6848237732892767 -2.664194865003512 0.574872369615004
C 3.69055447 5.04957853 0.13753786 6 0.9597740244582998 2.2121082570289596 0.25451792860145295
C 4.93350958 4.42909880 0.22272778 6 -0.7989233550111208 -3.673342288105145 -1.0955936844917167
C 6.15761422 5.05097257 0.16210463 6 0.7968322947654691 1.6502733857630738 0.9474590887371059
C 7.38414170 4.39239915 0.16706408 6 0.9760175409017109 -2.799259562803624 0.2166299329256904
C 8.63992884 5.04278772 0.15775191 6 0.21846693912280496 -0.3802037120631611 0.2530229182389076
C 9.88924136 4.35637973 0.21981518 6 -0.7627592240533673 -0.7824520127711474 -0.5763354946516197
C 11.11905008 5.07265197 0.16718972 6 -1.7342397916429435 -2.295808780432931 0.6549400229807847
C 12.31949132 4.37246711 0.14258927 6 0.5889163128487118 -1.1890711745287632 -0.6007107977660202
C 13.53351737 5.06673600 0.01871763 6 0.7810567726219951 -1.761842198309106 -0.23128792582327135
C 14.75573506 4.37400760 16.43015675 6 -0.033197767087384956 -2.287141628853991 0.9679906672386188
C 15.98548352 5.05608828 16.46219456 6 -0.7000963301301811 -1.2177479109669784 -0.9036332225261012
C 17.18510985 4.36104218 16.43345254 6 1.4369734122792415 -0.8286528214844687 0.6030836831505348
C 18.41469148 5.06541804 16.43679488 6 1.2247786253344906 -0.6708502863402845 -0.12187342989529992
C 19.66517210 4.41804852 16.44509602 6 -0.28633999815880395 -3.247960669155667 0.129906989191248
C 20.91158324 5.01161480 16.49338229 6 0.2928559187963855 3.728514187552639 0.2652133983330855
C 22.14842329 4.40259635 0.04510936 6 0.44510269303703426 -3.818579947715201 -0.6721786701608744
C 23.39125953 5.03825692 0.03644551 6 0.24324132309077798 1.8196868080607451 0.25988957746171654
C 24.65608350 4.39544356 16.50334890 6 -1.931056080179991 -1.4277024966254386 -0.2654072816859165
C 25.87340326 5.04258929 0.03289184 6 0.3036347017989958 2.0349569861193664 0.3143666853716125
C 28.33916383 6.46429143 0.18146761 6 -0.3125044794814244 -0.9141132091679828 -0.7547410931409335
C 4.95737032 7.14091026 0.13961822 6 -0.6211482631280955 1.1531600690606458 0.9881668786398503
C 6.18366156 6.45115590 0.22801610 6 -0.13603771452042007 0.22765042727002632 -0.9490399837678813
C 7.41923572 7.12286379 0.15896767 6 -0.4484521950980105 1.1872933104684538 -0.16399497400741384
C 8.63939144 6.42454674 0.12892057 6 0.529167840571396 1.2607319017175473 0.24089929447329209
C 9.87178233 7.13546257 0.13375405 6 -0.8790743216478792 0.9873270602972165 -0.07475103240671849
C 11.07899600 6.43088428 0.17429193 6 1.296749463031914 2.1502198679581963 -0.7036664580754133
C 12.31920932 7.12402263 0.05079109 6 0.29169981859170646 1.3889433115605627 0.3133530405747164
C 13.57192588 6.42803195 16.48748775 6 -1.3512692561361999 2.048836874208371 0.5351648532434432
C 14.79754141 7.11910027 16.49166762 6 -1.0312285255874416 1.2459617958997617 -0.9085924192670798
C 16.00370683 6.42526289 16.39651207 6 0.7274379971149504 1.4547803382521114 0.8171725613114036
C 17.22584686 7.12554389 16.44757492 6 1.6988871936580472 0.898379857939448 -0.03604790380194512
C 18.51515735 6.43341942 16.44665946 6 -3.022660498974334 2.0956717894841344 0.18777731291541094
C 19.72055498 7.15295647 0.01145692 6 0.391520945650424 -0.5151002404829661 -0.7069095042901402
C 20.95028736 6.43457742 0.01399179 6 -0.9233239541260795 0.07949834601409936 0.21588525628139532
C 22.16482234 7.12209692 0.08538919 6 -0.30342796145990286 1.9390402686486927 -0.30327419190420934
C 23.37204674 6.45392285 0.08425433 6 1.2354689522716185 -1.548483596967919 -0.051101891876395675
C 24.60959377 7.10899288 0.09581724 6 1.0073896159398918 2.601901738005221 0.22051479989461634
C 25.87730558 6.45816415 0.14530788 6 -1.5865114766542119 -1.7440861860018333 -0.7656422746527581
C 27.09340279 7.09838721 0.10028108 6 0.05508755761761568 3.781159432059925 0.6782708245312605
C 29.54672970 8.56211602 0.15384973 6 -0.8748412874909784 -0.13512332565746663 -0.6327776643417996
C 6.14134933 9.25919053 0.12308166 6 0.7319009141862158 -1.4322014132582375 -0.2551556351200482
C 7.39593381 8.54238198 0.08605155 6 -0.7578761406710597 0.6072292898008542 0.8557882624095955
C 8.58844913 9.29718216 0.12399695 6 1.733964137857486 -2.9348081975666376 -1.0278610237456987
C 9.86346428 8.56467166 0.07612556 6 -2.2081755620711387 -0.49365324455959864 0.844278688307853
C 11.04724231 9.27398700 0.09505847 6 2.135775815312015 -1.5648639117451573 -0.3319720137998943
C 12.30867055 8.55580764 0.04181390 6 -0.4516772415319706 -0.3527977601470819 -0.42936882752904904
C 13.53639983 9.26119105 16.40399203 6 0.015158901082348478 -1.1528376158451947 0.8741166677452521
C 14.76336191 8.53138749 16.43880656 6 0.9755212612319977 0.9570000011024108 -0.1779386327482781
C 16.01329701 9.27154864 16.45088193 6 -1.0082350913564808 -1.4134893554525227 0.8405907903684608
C 17.23779753 8.54529115 0.01725076 6 0.42900420339865875 0.4546153200325628 -0.4424582681026661
C 18.49276363 9.27881046 0.05434509 6 -0.6439591281541358 -3.43465850950452 -0.5058930954810227
C 19.72239229 8.55491421 16.47354796 6 -0.4915441845331801 0.2362440368875471 0.8184603170554056
C 20.94994890 9.24965940 0.01712248 6 -0.11051453967254815 -0.8582007473117972 0.4266812031208407
C 22.18166653 8.55916036 0.07265493 6 -1.1223459872262358 -1.091336479200643 -0.3034660181392384
C 23.37689515 9.27137219 0.06382929 6 1.4201225318048136 -2.4125682154726578 0.3375545172348547
C 24.61179650 8.54644155 0.08768880 6 0.13269592665120106 0.03066288367596904 0.2158245713062387
C 25.85355252 9.27919484 0.13658543 6 -1.7857495071235696 -1.542271615485571 -0.44088045874859344
C 27.02719471 8.55332829 0.10957030 6 3.1145807508353274 -0.6259197478696489 -0.053854829774815115
C 28.28917867 9.28199793 0.07892804 6 -0.2582634258392988 -3.2061260929769206 0.3741377859447495
C 30.74513970 10.64666879 0.05918584 6 -0.25369816715738785 0.6369160710798123 0.12042830463945112
C 7.33055127 11.33944051 0.05387804 6 2.0730352651918063 1.9422807434661673 -0.5466487133726617
C 8.60363174 10.66577437 0.01274433 6 -2.173904493770602 0.6907673008984739 0.8616171057013358
C 9.80096472 11.35725856 0.02282717 6 2.224385136070818 -0.7512563355844811 -0.0490956877400732
C 11.05243311 10.64994543 0.04415808 6 -0.763987837660564 1.3821337373567573 -0.4635884678845378
C 12.26635176 11.35816679 16.40995756 6 1.686089863812303 -2.860626986791051 0.4098298083669625
C 13.53220873 10.65900280 16.40659722 6 -0.647888223155803 0.545060104150129 -0.18267000369269407
C 14.75433468 11.38755495 16.41781723 6 0.24024667385063295 -2.843681478897735 0.4176401703814022
C 15.98235067 10.66525074 0.05610566 6 1.1625945255797014 0.5928567219982896 -0.8394249188542228
C 17.25737313 11.35683234 0.10743133 6 -1.3627099167915782 -2.7006351640261737 -0.40819285687608464
C 18.49175943 10.63190592 0.06566300 6 -0.5295669214249685 2.7885152365241956 0.7126401202068388
C 19.70689690 11.35701365 0.12008255 6 0.46851166506398284 0.3243611922122408 -0.6113985533058955
C 20.93761089 10.62751333 0.13226341 6 0.05194068166012856 2.072500414563307 -0.2704883626566589
C 22.16938825 11.34493850 0.15815639 6 -0.6830289380071014 0.8390654375183373 -0.40076254737554956
C 23.38815999 10.63338069 0.11130710 6 0.014034686203599201 2.9703443933153553 0.18572842358469863
C 24.60158678 11.38625431 0.13497493 6 0.8282907687513308 -2.4932170046174806 -0.2233279084887419
C 25.85171537 10.67033666 0.11629049 6 -0.7244999186143581 1.3717823205774957 0.24143980217574657
C 27.06397612 11.38631031 0.09380490 6 0.19680240299188445 -0.8851957899469428 -0.32315057838581085
C 28.28567801 10.64222209 0.02509524 6 0.22666146788675326 2.812434373766021 0.329523529336159
C 29.52300271 11.35268381 0.01420245 6 0.06884710431520807 0.7563883302208211 -0.3856345030602299
C 32.00422808 12.78674383 0.00995836 6 -0.19635652270831833 -2.0020569868338094 0.13308472191576393
C 8.64616749 13.44583687 16.47405794 6 -0.8905813243523694 -0.8109461800044422 0.11596744468598759
C 9.88376371 12.73999872 16.48188889 6 -2.927646341939253 -0.6516275490402431 -0.4064278498020372
C 11.07642874 13.36381236 16.33807164 6 1.8070555904775059 2.9721253430523675 0.6323513266773517
C 12.32388272 12.71244540 16.35300711 6 -2.0116637269687754 0.2583930242608198 -0.17056797966399873
C 13.51853589 13.37683335 16.35381987 6 0.7511462797820784 2.7183099201802703 -0.19991893646179326
C 14.74433997 12.74793464 16.37509696 6 2.1105555510604757 0.5673284043559129 0.2438378872533348
C 16.02738414 13.42830325 16.41513114 6 -2.149757016452764 -2.3990030664073467 0.31930685377292334
C 17.22634570 12.71133030 0.03583433 6 0.715811681577949 1.8716146327346115 -0.16470467964907623
C 18.43308253 13.44191360 0.02873261 6 1.1909086950053283 -0.2862541134905737 0.12171143186839872
C 19.70909297 12.79191090 0.03495619 6 -0.7607242202678178 -2.0322241051195156 0.5719692621170445
C 20.95118404 13.46753487 0.03650445 6 -2.0302600718981325 -0.09158957017433464 0.44373059546315363
C 22.15192957 12.79411660 0.10237844 6 1.6369144627574055 -2.5225273333386875 -0.1009556275264764
C 23.40691915 13.45946835 0.06651539 6 -1.5486857087919577 -0.919839196569627 0.6587600907389503
C 24.61306012 12.75822566 0.12392794 6 0.6328239494923429 1.2455478009421252 0.04140360999924384
C 25.85159261 13.47811581 0.14371868 6 -0.8838530063017394 -0.4053000349671346 -0.2987547040933911
C 27.05644538 12.79489804 0.09358648 6 1.263773350387686 -0.8877440446240712 -0.04498042357733224
C 28.29415278 13.47091463 0.01980296 6 1.245297861129192 0.6580020428289427 -0.56011460650403
C 29.56345121 12.78964687 16.43142352 6 -2.4790234060636833 -1.7331567191202324 1.165626202940281
C 30.76328319 13.47493849 0.00989083 6 1.4501183950335104 0.5085256919880298 -0.5238733336287045
C 33.23104392 14.82813305 16.42852545 6 1.6504698405131573 -0.47354594660473154 0.3795264060268789
C 9.86222646 15.48280835 16.41415378 6 -0.15046376738583456 2.1764280630341077 -0.7431096348094274
C 11.08199591 14.78563790 16.35802996 6 -0.26484003145203705 -0.33030163414473523 -0.06742049311957655
C 12.30268079 15.48392155 16.32292914 6 -0.08281133423409151 1.5454457482539334 -0.6670471898039849
C 13.52008854 14.79601746 16.35000057 6 0.7533263103726631 -0.43996915556234284 -0.029218272699570717
C 14.76785764 15.45902975 16.37184030 6 -0.7705803859362671 2.6141235891458785 -0.6461360730680176
C 15.99981476 14.77732710 16.38497244 6 -0.25465472693528063 1.8757622965027327 0.22519577145288527
C 17.20042255 15.48782665 16.43092444 6 -0.2593752980112366 2.708511868089725 -0.7715045461087796
C 18.41646803 14.84318415 0.00052219 6 0.7818780769044118 -1.717339026061819 -0.31229516774507904
C 19.66497737 15.46886644 16.46663941 6 -1.33862672440505 4.546269941760887 -0.24350103421327038
C 20.87922597 14.85864329 0.04947925 6 3.341723070008279 -1.1852845349348788 -0.4474436930956192
C 22.18244333 15.49050464 0.04887005 6 -4.043538636341415 3.8731794541343114 0.08022913711323144
C 23.37965155 14.84331411 0.12645257 6 0.764461489034456 -1.5421471598585548 -0.5321594041348381
C 24.60221529 15.46675097 0.14253462 6 0.569099582783366 4.834745228198083 0.6645549915869589
C 25.86315445 14.88335696 0.12533273 6 -1.1151923600700588 -3.213824856350606 -0.08404251923854064
C 27.08350062 15.48167042 0.05122992 6 0.16018930607386184 6.54353024416007 1.3171205863448774
C 28.31744193 14.90963520 0.00191791 6 -0.5258419953651419 -4.965908087807404 -0.06671798739022088
C 29.54489072 15.50727647 16.47828767 6 0.6941780022140573 3.2887666864334526 0.42516459302137516
C 30.77715841 14.88878056 0.00242326 6 0.46837486673015516 -2.6046726756844074 -0.09833434516737984
C 32.03355870 15.49951467 16.50023208 6 -1.1851369367325912 3.1673067372163386 -0.00804641628221008
C 9.86784024 16.91919199 16.31252272 6 -1.3785666950882278 0.4408665732034305 0.47919890632440776
C 11.06761540 17.65694900 16.27164574 6 0.9746279578265138 -2.2359312240135445 -1.024504836051866
C 12.30771594 16.90761406 16.17012364 6 -0.19203348964758343 0.8009599016350216 1.345018703695066
C 13.53457194 17.64035130 16.21539182 6 -0.4001042696789352 -0.378392934118021 0.09825874608815928
C 14.75980068 16.92604196 16.29867985 6 -0.16999712947396592 -0.9782268854209728 0.15682231851156928
C 15.97824622 17.64914515 16.34034120 6 -0.9920347743869103 0.05152154390798736 -0.3682174009108237
C 17.17493265 16.91781929 16.29226971 6 0.7586023032551374 0.5306618223750403 1.5975890560175512
C 18.38793309 17.66317412 16.41798827 6 0.6508232159796924 -0.7233371327768229 -0.827890145059407
C 19.60655855 16.92386796 16.36208171 6 1.740215718857521 1.0021907649749893 0.8215459937582856
C 20.86563048 17.68755243 16.39520304 6 -0.49082779325866155 -2.180736696270229 0.2616700129192783
C 22.08498260 16.93519949 16.50292874 6 2.20188746723012 0.60377487473198 -0.32725709979789364
C 23.36153324 17.66379686 0.00754500 6 -0.6618560530308398 -1.963306030240141 0.9735963132488509
C 24.57993368 16.90228196 0.22369111 6 0.4646895401880155 1.0862307128162776 -1.344941561777494
C 25.84882395 17.62427596 0.19840139 6 -1.13623616090425 0.5340771522056781 0.1547744577397579
C 27.08543199 16.98185670 0.22091273 6 0.2498009574816504 -2.9644610364018638 -1.5291261184518516
C 28.32833151 17.64286341 0.06884900 6 -0.23083587418629944 -0.056644795793669114 -0.18016134853325264
C 29.54140852 16.90336516 0.00703931 6 0.8020599453795983 2.4565144230750744 0.17313526268079488
C 30.77227402 17.67641256 0.01529191 6 0.8815793768511674 -3.0888616355168224 -0.31680694136414006
C 32.04831710 16.93196279 16.50838099 6 -2.4068283425258508 0.5804106450172232 -0.4686901200332994
C 33.21681548 17.66010266 16.34160385 6 2.502834544620907 -0.9110301038623552 0.36475321453239046
C 35.70079701 19.03454999 16.17977872 6 0.22965714568579929 3.7251364001218863 0.1448180075784651
C 12.31534869 19.81843994 16.17336528 6 -1.1012631011538079 -0.06171250549869904 0.4149232320445164
C 13.52992150 19.07888062 16.24424693 6 -0.6787701898776766 0.4161194460463329 -0.4981423898828386
C 14.72494239 19.79982397 16.30355378 6 0.9916084367224626 2.1479436671103715 0.13394459715696647
C 15.94560379 19.08268746 16.37651051 6 0.6097868015080913 0.1159880158640068 0.00471491400200064
C 17.17793276 19.79032369 16.47008180 6 0.10250823718747551 2.0347281317639023 -0.8671003532023535
C 18.40813534 19.09953430 16.45300852 6 0.3840633793390135 -0.7357096677964706 -0.19052819369602847
C 19.65167453 19.80324642 16.41600350 6 0.23653563333596928 0.7331202707633039 0.18305108476549975
C 20.90082997 19.09995271 16.42510435 6 -0.2343391458029692 0.16859571797140793 -0.34045659617391333
C 22.15590232 19.79757770 16.45913552 6 -1.0510678839486085 0.26069751047842066 0.27065858915476776
C 23.37477437 19.07442231 0.00237142 6 -0.9617982283753893 -0.7258555592458233 0.1442702999637039
C 24.57760960 19.73637950 0.11036920 6 2.405044307112135 1.6975042962157065 -0.1475514028577663
C 25.85419468 19.04794902 0.10479097 6 -1.594547093067962 -0.49627452691869517 0.02020038253540392
C 27.06038142 19.73534110 16.48709631 6 1.315616833231674 1.681785859091236 0.8419757449286035
C 28.33802675 19.05149700 16.44963976 6 -1.4052156276532004 0.5779133040056923 0.5871502772157636
C 29.53352825 19.78208495 16.43282122 6 1.5742021980069731 0.7523445509016968 0.556463222405622
C 30.79143929 19.05862400 16.46436176 6 -1.2395039888400845 1.7476192858266313 -0.01733481743732936
C 31.99558836 19.79418081 16.42338654 6 1.3411667506109708 1.1487156660495976 -0.261909667143202
C 33.24897007 19.06936238 16.31988645 6 -0.7584367052720828 1.5043759056180512 0.05436396643079031
C 34.48309494 19.79855017 16.22301557 6 -0.554957926454067 0.5430595570877618 0.4572119169780363
200
energy=-1977.0384452513144 config_type=Graphene dft_virial = "-0.05923895173096311 0.0015245883916281244 5.221725263985361e-06 0.0015245883916281244 -0.05605086063111184 -1.4927104768613285e-06 5.221725263985361e-06 -1.4927104768613285e-06 8.127760883416416e-05" Lattice="24.80000000 0.00000000 0.00000000 12.40000000 21.47743001 0.00000000 0.00000000 0.00000000 24.80000000" Properties=species:S:1:pos:R:3:Z:I:1:force:R:3
C 24.79092717 0.00139431 0.00139798 6 0.3438132981471963 -0.06484858158772608 -0.1467156987507363
C 1.24185169 0.71462648 24.79970662 6 -0.28977127065240643 0.30707214564600416 -0.04344478513819896
C 2.47832079 0.00496644 24.79628769 6 0.14276088977654514 -0.40369599736108747 0.056189144200543835
C 3.72629548 0.71391536 0.01084479 6 -0.5412014654331775 0.5255467989605663 -0.16162363146125056
C 4.95279076 0.00147958 0.00409002 6 0.8005829347978198 0.01208453852737904 0.02150510950127168
C 6.21425963 0.72204177 0.01031854 6 -1.3359452713502475 -0.08566918514040887 -0.09679819244879607
C 7.43287087 0.00548469 0.00418103 6 0.5684803903249881 -0.27387592139697065 -0.1592492032383844
C 8.67245361 0.70798673 24.78911379 6 0.1712699711139039 0.7722445942380204 0.07663946654888103
C 22.31323481 21.47690081 24.78781378 6 0.060477206258646075 -0.37343990873044813 0.22823104876961822
C 11.14678606 0.71472506 0.00505846 6 0.42849969525773796 0.02646790619840368 -0.23419617611573573
C 12.39725700 0.00698983 24.78970180 6 -0.39751590120466934 -0.6703992632622137 0.0893097693703568
C 13.62986114 0.70991605 24.79011670 6 0.8305402270677302 0.7589838986073936 0.08112604047486856
C 14.88800321 0.00933581 0.01062308 6 -0.6582190687570453 -0.363054549507455 -0.17013547064614504
C 16.12046475 0.72639203 0.00140294 6 0.2675816552025459 -0.4960081301633466 -0.0426954799788496
C 29.77443286 21.47372773 24.79716164 6 -1.274714645696648 0.6217900838822945 0.17092026108757752
C 18.58901769 0.72034076 0.00682149 6 0.6748940656594088 -0.24639745607837377 -0.3325454353871795
C 32.22694032 21.47675218 24.78548679 6 0.4396292168455756 0.11353284576741528 0.42248571136382473
C 21.07153216 0.71857746 0.00949964 6 0.3963474582931788 -0.4529896826895955 -0.1917208077416916
C 22.32489614 0.00175406 0.00677214 6 -0.7661827823552126 0.032586803100214716 -0.1893006086477327
C 23.55590180 0.72776315 24.78958673 6 0.22543748279461087 -0.3438801544757587 0.22153924455997245
C 1.24652550 2.15407820 24.79498420 6 -0.8305983406456345 -0.3970700209211032 0.05693999219824463
C 2.47603014 2.85906195 24.79273558 6 0.12193771482660992 0.5087180325025092 0.0557067500759936
C 3.71447121 2.15933888 24.79730970 6 0.12115549578242985 -0.7787939430398831 0.1468344973037972
C 4.95254710 2.87020251 0.01074311 6 0.17509826734327702 -0.5190067071888121 -0.141992556277528
C 6.19057563 2.14650612 0.00249885 6 0.647746796306921 0.31258727847295165 0.04154195117142296
C 7.44613478 2.86903457 24.78910114 6 -0.8900526450772759 -0.3592956810038967 0.17652179286220568
C 8.66932496 2.15751631 24.78930153 6 0.8952432675709706 -0.7865333344901566 0.09146254315006608
C 9.92903018 2.85774173 0.01286822 6 -0.5692605522513663 0.29625890592021165 -0.2483033757218526
C 11.15932073 2.14297630 0.00049203 6 -0.007358824656918319 -0.20546132609961626 0.0630609462178576
C 12.40141422 2.84918105 24.78973999 6 0.10262035010768016 0.6645591058225627 0.06646444762113424
C 13.65004946 2.15958308 24.78647036 6 -0.5032322136042391 -0.985731251162377 0.0895257667395584
C 14.88239072 2.87007579 0.00503886 6 -0.32581506021874773 -0.2212327340074864 -0.25300337561978936
C 16.10872406 2.14964955 24.79199654 6 0.6423262908988618 0.0192057660781756 0.23228254228049966
C 17.35399282 2.85480770 0.00728178 6 -0.16385560427633375 0.6334621702903885 -0.16404074487850656
C 18.59194756 2.15118218 24.78583374 6 0.19339581591190494 0.14927629613467622 0.21671838899117293
C 19.83166844 2.87664617 24.79003114 6 0.44218827139116407 -0.8651640910712962 0.11757971076324239
C 21.08888671 2.13840827 24.79907471 6 -0.9025110647651537 0.9482711359894138 -0.06979132138628935
C 22.32044950 2.86736556 24.78707126 6 0.23567061530026193 -0.4977906227387102 0.2622357203148063
C 23.56401314 2.15945293 0.00490172 6 -0.4961978992805736 -0.3432403908393616 -0.19242331347104727
C 24.78770664 2.87359423 0.00132928 6 1.0686495555221684 -0.5778731902085549 0.07513777055347944
C 27.27199530 4.29474116 0.00320887 6 -0.08630689165900408 0.31851537769863464 -0.00474062797452464
C 3.70760893 5.01757997 0.01303885 6 0.5135702591177881 -1.1664547071350044 -0.20658914093451888
C 4.95270644 4.28038329 0.00320168 6 0.1413594782739871 1.398842162423402 0.01921142315213088
C 6.20324099 5.02251827 24.79345726 6 -0.31370377915994374 -1.4656095206408688 0.22454572222747854
C 7.43857040 4.28576167 0.00673469 6 0.20112235037591647 1.0453166968538907 -0.2875408406756747
C 8.68133002 5.01772644 24.79213939 6 0.17744595303471822 -0.35350180871478903 0.13696341753128408
C 9.93222752 4.29220618 0.00444515 6 -0.7169708674593309 0.13625474044852262 0.06340757056748113
C 11.15524162 5.01232014 0.01119497 6 0.6780069991731642 0.01028610328905048 -0.14864373241058584
C 12.40488920 4.28337767 24.79316586 6 -0.3299431813677507 0.2650935712211237 0.10929055458040575
C 13.64426572 4.99984197 0.00026362 6 -0.40131231210811275 0.5647863210321903 -0.14956429262694504
C 14.86981675 4.29040981 24.78825571 6 0.9101717714595039 0.43896631063390684 0.29955595147723896
C 16.12581014 5.01245674 0.01319434 6 -0.8767430928988534 0.2044898522176595 -0.11133635823441519
C 17.35293200 4.30081155 0.01245134 6 0.5927368948863279 -0.4554006247534457 -0.1009067709786808
C 18.60621327 5.00515978 24.79333103 6 -0.9474061179537064 0.6828175691529541 0.2534646842868699
C 19.83102600 4.30415279 0.00998423 6 0.4837189084146765 -0.5370646015335164 -0.29241466702787366
C 21.07089964 5.00106812 24.79362119 6 0.846655173648521 0.5998349798618527 0.1829184006672759
C 22.33257620 4.28601725 0.00274883 6 -1.3208969403497521 0.5140660245080508 -0.13691507526293895
C 23.54898892 5.00851971 0.00745265 6 0.8683958231381126 0.1898354592762319 -0.10101939817833591
C 24.79894104 4.28687312 0.01212546 6 -0.39840869033070264 0.9532611894974213 -0.10844610772271758
C 26.03011633 5.02061494 0.00416913 6 0.2967233002639951 -0.9549716829497178 -0.00655552015526856
C 3.72611407 6.43037068 24.78983299 6 -0.43938801978330044 0.573986266121827 0.15716534290503942
C 4.94806934 7.15363731 24.78584019 6 0.7390411700766801 -0.41530997019127736 0.2859239460833656
C 6.20345551 6.42879424 0.01319633 6 -0.26233446196929844 1.3297065473364744 -0.3782443073568323
C 7.43837238 7.16622201 24.78928218 6 0.1487213886076083 -0.3588806574873593 0.2813941726835377
C 8.68306330 6.44994714 24.79468635 6 -0.5380129328402015 -0.35418271470722457 -0.0210108869493604
C 9.90856894 7.16699219 0.00372893 6 1.0279304514715133 -0.34654875054429946 -0.031084592825362637
C 11.15981735 6.44717119 0.00327633 6 -0.1265153162153324 -0.14425590013909048 -0.017237104341738158
C 12.41159065 7.15459692 24.79389226 6 -0.72989111009374 0.5131650069108098 0.14464675252145529
C 13.64057635 6.45014044 24.79736897 6 0.46936382611342825 -0.5026649633703597 0.0269559573969092
C 14.88840522 7.16583327 0.00005134 6 -0.6966393436640546 -0.09608591540988128 -0.0037053834407084
C 16.10661271 6.45005582 0.01301851 6 1.3134789735560286 -0.549660848114123 -0.13894647909233496
C 17.37235499 7.15141053 24.79857053 6 -1.043866428803537 0.5125900424851731 0.08934216897573703
C 18.60048174 6.44735331 0.00515220 6 0.4941808952757911 -0.5384768129045345 -0.12708976636151856
C 19.85077225 7.15278938 0.00647106 6 -0.38238528549209727 0.47050604077294433 -0.02010472655761464
C 21.08733175 6.44739026 0.00513137 6 -0.28219130583178176 -0.8119911958478176 0.01738470254402592
C 22.31874512 7.15941882 0.01294858 6 0.40462530032810484 -0.24980764311450665 -0.21198238953170265
C 23.56145316 6.44424252 24.78750502 6 0.17459375920235615 0.00871497956783408 0.3345053543729588
C 24.81381943 7.16647652 0.00621265 6 -0.6219402534818347 -0.8793926606277264 -0.20334815183759392
C 26.04447132 6.43607122 24.79399518 6 -0.0075599079220559995 0.6175642496377003 0.1759370571270099
C 27.28781696 7.14788759 0.00105673 6 -0.1675188168021028 0.1512130725451839 -0.1919980043655003
C 29.74755437 8.57578231 0.00764758 6 0.7103916904493404 0.6248284468757302 -0.0832438432519452
C 6.19197026 9.30777479 0.00893098 6 0.5250325195100863 -0.7278015926864397 -0.04363815421157944
C 7.45283053 8.59458666 0.00920204 6 -1.0012810046270901 0.11882786698955736 -0.13281935371931622
C 8.68095282 9.31618836 0.00083973 6 0.5907723473854942 -0.6225990454578996 -0.04796221583121527
C 9.92903910 8.58486855 24.79949929 6 -0.5596692404999143 0.6324017260634988 -0.01824817774138184
C 11.16170971 9.30876490 24.79547028 6 -0.24236241950990764 -0.22431943926926734 0.19126618470746726
C 12.39482548 8.59675888 0.01208752 6 0.4646463407141752 -0.4784259443103363 -0.19325387478357248
C 13.63465163 9.30564852 0.01370324 6 0.42431088913357834 0.07661838109141135 -0.09863777004316303
C 14.89337985 8.59178256 24.79316636 6 -0.7046759886367056 0.5154931499831328 0.22640227104371136
C 16.12426535 9.31726438 0.01012113 6 0.026538876762569923 -0.3505462447128805 -0.2942753300797103
C 17.35284966 8.59213522 24.79175474 6 0.6373609228044774 -0.09772080978295719 0.18334525261117432
C 18.60182379 9.30579758 24.79845670 6 -0.26701749064536934 -0.22189564021915514 0.0022494583163995196
C 19.84395920 8.58912516 0.00344348 6 -0.06061451887192423 0.10348279674613511 -0.032601202924828154
C 21.07644591 9.31973471 0.00154405 6 0.3553717287967343 -1.300155021552993 0.10817713957011656
C 22.32493396 8.57825393 0.00657274 6 -0.4311348631619974 0.9890041255852318 -0.03207920928259096