216
energy=-1787.4015683041698 config_type=LD_iter1 dft_virial = "-0.0757726415326991 0.011616416688523246 -0.010284886347656518 0.011616416688523246 -0.05284297530316707 0.0314157285873977 -0.010284886347656518 0.0314157285873977 -0.06400983622063058" Lattice="14.21500000 0.00000000 0.00000000 0.00000000 14.21500000 0.00000000 0.00000000 0.00000000 14.21500000" Properties=species:S:1:pos:R:3:Z:I:1:force:R:3
C 4.17000010 8.73999978 11.69000050 6 3.262887115926398 0.1310229755987896 -0.7588147006681857
C 7.59000060 2.24999995 1.99000007 6 3.270714449162704 -1.0729962454376252 -2.3962110432706907
C 5.29000038 5.86000013 1.09000009 6 -4.821518475011189 0.6564859470089276 -3.1217338637120533
C 12.03000069 2.34000009 11.29000091 6 -0.12080218579995008 -2.763463655932414 -1.7006743147484653
C 7.18000034 6.14000038 3.93000001 6 0.7884963391526388 0.732372508442306 -1.58557703089269
C 8.28000068 6.89000041 11.58000085 6 4.447374003433582 1.7531781324068694 3.678463482873024
C 0.88000004 12.64000032 5.07999991 6 -5.209488835335498 -1.687315391742797 -3.494692406876853
C 13.36000059 13.05000115 2.60000012 6 0.2970421535232927 -6.4869703044757285 -6.249209657488716
C 1.53000011 9.88000014 2.30999990 6 0.8003242522342283 1.094747694795677 0.7979801664989404
C 5.81000043 5.85000045 7.70000025 6 -0.9577184494947315 1.85442741349957 -2.9822911049500056
C 2.51000026 4.38000014 6.61000016 6 2.6895030710410834 0.4113870465430159 -0.4506975391788061
C 13.48000049 4.58000036 0.99000012 6 1.4884959847461299 -2.7952265833529597 -0.6780229418361291
C 8.15000052 12.38000015 2.54000003 6 1.085267981684979 -6.5459206150459 -3.7464460834319753
C 10.27999972 10.90000059 2.07000024 6 -4.05376508321421 0.2808305224058117 0.35195279900994325
C 12.13000109 12.74000071 10.86000058 6 3.516470084486879 0.7334632951567741 1.1243362486995934
C 9.42000004 2.01000000 4.99000019 6 1.8136861954325443 -0.7431461486504115 1.3110099179142742
C 3.87000034 7.24999997 13.89000032 6 3.374815409808316 -2.8855839399639445 3.711717820699962
C 12.32000162 11.06999962 12.30000026 6 6.474640454650472 3.0569125389352028 9.404309457668461
C 11.76000027 7.36000062 10.02000040 6 -1.9150275325468809 -0.1937388403053751 0.36796951821569235
C 11.57000059 2.91000013 0.62000002 6 4.505005701492723 5.1077551030004456 2.8862262749975938
C 3.37000009 3.14000011 7.18000034 6 -2.359201436896348 -0.7325540490883254 -1.000505985495217
C 3.66000030 0.67000000 7.84000009 6 1.4709302558355348 1.1116464032589992 -2.4876761578180093
C 13.46000098 1.13000010 2.59000015 6 3.908219884492766 1.5967286664968983 6.6269725992799
C 0.71999998 13.14000029 13.18000031 6 3.4756717814008495 -1.4049811162237815 6.108586113108366
C 8.82000067 11.22000128 2.09000018 6 -0.42361404047817786 6.18295760728063 1.8692530614980074
C 1.51000017 8.10000040 10.32999999 6 -0.5946818997680432 1.970395372465008 -5.456368685538423
C 3.93000001 11.54000097 2.30999990 6 4.082313249789805 -0.29441109985463704 3.9337404879433855
C 3.67000013 9.64000033 5.36000016 6 -1.2427501207315141 3.2558096021288927 2.2340782751534647
C 11.97000032 10.43000123 11.29000091 6 -0.4956687057260297 -1.234863131078953 -9.523076639682863
C 0.44000002 13.84000020 4.55000017 6 -0.47512992731221 0.6622659337528723 2.278518191028343
C 0.22999998 9.53000068 6.50000051 6 2.5150414816575006 3.529592953224777 2.757993265417658
C 12.39999966 4.84000010 11.65999988 6 2.2271277883802276 -5.159452530480498 2.6426167278202723
C 7.11000013 5.27000002 7.86000017 6 -1.8190552728955554 1.7506057065955687 -0.946192932730024
C 1.75000012 4.15000017 5.55000012 6 -1.1494192003378543 -3.459957972791433 -6.668363352292881
C 8.79000090 13.88000007 10.25000095 6 6.538696531605007 -1.8537593644933965 3.1040503648072986
C 11.46000009 13.07000066 0.89999998 6 1.6689895578043923 -3.3436572750215348 2.4186248845609604
C 13.76000017 2.99999998 13.05000115 6 -2.647738951147053 1.9589058552618344 -4.4814095317458
C 10.65000053 9.63000108 2.29000025 6 -0.8305834265415706 6.037706576404861 -1.481895207999219
C 7.11000013 3.85000012 8.36000057 6 5.67540596057181 5.896284356037915 0.766624548403175
C 10.39000037 9.59000021 9.13000011 6 12.468155512155036 6.39170055055376 2.1439127447775097
C 12.56000043 13.66000077 1.54999990 6 -3.5240289638500335 -1.1846884850517727 -0.027094298569088317
C 3.98000028 2.28000014 4.31000037 6 -0.22898498244402188 -1.319936780615706 -1.4867896055294372
C 4.67000008 4.96000001 7.05000018 6 0.5107473792141034 7.529839031145334 3.8931597250649097
C 2.16000010 2.88000008 0.30000004 6 -6.650133688611717 0.007337224919998159 -3.3349649237495216
C 5.59999996 11.35000129 9.15000061 6 -5.33959227927683 1.1724784623384765 -3.1119080405311825
C 4.13000009 9.01000020 2.74000024 6 -1.8046425912958537 1.0415619425859364 -1.846014830248618
C 1.85000009 12.27000135 1.11999999 6 4.694074370108289 -3.9562695278305626 3.2326865694764106
C 3.24000007 11.09000112 5.86999996 6 0.807390966163274 -1.9541338562408304 1.3926096097630347
C 12.21000097 7.83000040 11.42000107 6 1.5416668228518065 -0.687938763920834 -3.28057832902291
C 0.85999997 0.73000010 9.42000004 6 3.4873145538802666 -4.293664618435769 4.160029617507991
C 0.75000003 4.99000019 1.03000014 6 -1.4409019930014582 1.1843722031897275 2.1216187305992014
C 3.31000042 12.28000075 1.53000011 6 -4.5529303749240535 2.177773932356014 -2.125718566378428
C 7.04000050 14.20500003 9.80000025 6 -4.344007433843256 -9.34304334673278 -0.37112565120328816
C 8.49000072 10.97000023 12.65999983 6 -0.8550744425323291 0.9788553349094594 0.11228623237945176
C 0.98000001 10.09000018 7.41000074 6 0.41713360512267944 -1.8389650875414383 -0.6434854767802437
C 10.05000017 8.98000044 12.29000086 6 -2.080932540433377 -4.7077768317868784 -3.329016253345819
C 9.45000080 8.17000003 11.37000080 6 -5.403318703103609 -2.1592994716564204 -2.0217914321870785
C 5.88000007 7.63000004 7.61000068 6 -7.479274561294691 -4.956479288362304 -0.8664225328866209
C 12.16000085 9.19000049 10.78999995 6 2.149207765999652 1.3969110430868494 7.060259721942156
C 11.30000017 6.51000019 3.52000018 6 0.42908185959568124 1.7199150518292734 -0.5327832251082704
C 11.05000026 5.49000031 0.36999996 6 2.1913015390214396 -1.3455967537974054 0.009980621295465359
C 3.08000044 7.04000050 6.15000006 6 -0.8520885360428423 -0.0738145295273944 -2.0624004804353304
C 6.09000011 10.43000123 11.51000022 6 5.634744970099059 6.637223217286867 -2.0994265437520885
C 12.72999960 5.06000040 14.13000112 6 -0.9571172568171202 2.392837370075542 -3.3793775828135244
C 10.46000000 12.82000060 12.89000038 6 -4.6541775988989516 -3.4034314612713743 -2.356787409155795
C 12.90000063 5.62000032 12.65999983 6 -1.73248969867296 4.427944011514998 3.0005048259682052
C 6.95000079 13.09000017 2.53000020 6 3.5594453324867894 -3.8080197334790453 -0.6864149539090617
C 6.82000063 8.18000029 8.33000095 6 5.672144914576316 3.211539912752124 2.381591621331896
C 12.65000157 8.03000062 14.00000097 6 -1.3629932847687924 -1.2572240015858234 -4.015420407386421
C 1.19000005 1.84000012 13.87000081 6 4.668944104760584 -1.8654196224741293 3.42386892663345
C 7.81000047 11.32000068 9.69000060 6 -0.16515467416824622 3.833170055725319 0.6252938697784147
C 0.35999999 9.02000046 2.60000012 6 2.4410752396922146 1.6912794577470966 -0.5058257248730097
C 7.57000024 7.71000007 9.59000021 6 -1.4310684556288302 -1.8785692337434525 1.014327245726867
C 6.47000032 11.32999993 10.25000095 6 -0.8145893356316427 -3.7893709320457387 1.6222230416955432
C 3.82000022 6.97999998 9.97000028 6 2.259024942737349 3.5633065426009933 0.0040962358230732
C 6.25000003 1.25000001 3.88000017 6 -0.21237272763461695 -2.470734764160297 -4.235907950470162
C 7.07000012 8.73000053 3.87000034 6 1.5812791975250284 -3.6118725225070722 0.05792689446371576
C 9.69000060 1.73000004 0.31999998 6 -9.107828383025643 2.759542275122504 -1.1162620613270573
C 3.06000022 8.65000064 6.53000070 6 3.1218012343200665 -1.8128504913255143 2.3714958014395227
C 11.60000036 8.81000041 9.72000022 6 -5.578976506489008 -3.289513934475 -8.196448569136962
C 2.51000026 13.52000136 6.21000058 6 -4.954044175164281 0.6959800374085392 -3.960366792212537
C 10.64000028 11.21000103 9.52000043 6 -0.792272178878063 -2.358102935990123 -2.0223391398018395
C 9.19999974 6.26000028 7.80000021 6 -3.0144351134433567 -1.888162088333256 1.107702394153268
C 6.82000063 14.12000087 3.15000036 6 -3.5662327926742248 8.242358809960761 4.442637489694662
C 11.42000107 5.03999989 10.76000118 6 0.5764157222458945 3.850066707070839 -3.7667801786245043
C 10.86000058 4.08000039 14.10000037 6 4.053388630656459 1.1689767335601582 3.9602587935279367
C 8.82999992 8.14000041 9.94000052 6 1.5150616040401246 2.5581746134487084 -0.5021074844460394
C 9.91000075 5.49999999 8.86999994 6 1.0240790126668686 5.459471847742619 -1.9341530710307815
C 9.28000063 4.79000040 12.30000026 6 3.1750373859159544 -6.522376901802925 3.070933339593639
C 5.45000030 13.71000104 9.41000078 6 -1.0552206905112347 4.478920419205477 -2.6562312477128294
C 3.21000003 4.85000036 0.75000003 6 2.648060375803603 3.524675413119287 -0.7349001919414151
C 8.03000062 10.19000057 8.86999994 6 4.15566749920902 1.3869617928378635 0.9272247637579704
C 3.46000008 3.63000011 8.98000044 6 -1.119234082271381 -1.34943739273359 -2.979807135204187
C 1.70000000 8.90999981 7.74000069 6 2.5519096611829615 1.7528253367038404 0.7631665333781474
C 9.41000078 0.62000002 5.07999991 6 -1.5129273443206326 -0.5868746234303063 -0.04274485080609568
C 13.49000074 9.80000025 3.01000024 6 2.2359708235312317 -8.045341952438026 1.1812016703775183
C 4.02000001 5.90000057 0.04999998 6 1.675079140777526 -1.0304812775458942 3.401916908289711
C 7.43000025 1.18000009 9.67000109 6 -1.462982581207817 9.192597064848261 -4.634684350607958
C 2.97000022 0.04000001 2.72000031 6 2.989964154351167 4.241660680403231 -0.4473146089535487
C 3.42000007 5.66000034 6.59000008 6 0.9616912582496894 -2.6448440721203013 1.3094619367683293
C 2.67000004 7.51000028 4.95000032 6 -1.672439858637663 -0.34481254311947895 -2.9774275641868164
C 10.71000105 13.74000066 13.73000055 6 1.437640432726514 -1.7804627143726353 4.699436761938444
C 11.24000079 6.69000047 0.85999997 6 -0.6432951933835661 0.774168513662266 3.2447726508421413
C 11.06000037 7.28000073 4.73000003 6 0.7595912626384105 -0.559896037737576 -0.6894378885189831
C 8.53999999 2.15000013 9.56000045 6 0.11127310186200615 -4.34535124604736 3.794937492817735
C 4.43000027 3.83000019 7.97000024 6 4.35967547158158 -2.173451413574729 -3.645310972377282
C 10.78999995 4.07000014 10.11000054 6 -4.124551021057727 -8.917502301153654 0.07451806381565104
C 1.54999990 7.81000047 11.51000022 6 -1.0449531012824014 0.46418863200324795 -0.2119551327208272
C 5.96000010 6.35000042 11.12000089 6 -4.19912411277458 -0.2782688964629708 0.12258467837531375
C 11.58000085 1.56999998 0.56000007 6 3.298037602087256 -1.8688807231758597 3.753879478609213
C 2.15000013 8.01000026 3.71999997 6 0.4289399184673488 -1.0541201324872074 1.7891602084391531
C 2.72999999 9.27000052 3.02000020 6 -0.8285787652435995 -2.2629442664294572 0.482830233524247
C 1.34999997 13.14000029 0.29000007 6 -1.4438231002801847 8.392180242312946 -5.504822552524296
C 10.96000097 7.34000011 2.39000008 6 -2.959407726521447 -1.9877091044448678 -1.7857052790908283
C 9.30000113 9.06000047 8.97000033 6 -7.713788047831373 0.365638803746117 0.8914967417742237
C 12.92000014 10.76000118 2.50000001 6 -4.225119910437443 8.129743438733003 -4.474089792327118
C 13.72000129 13.23000043 12.78000073 6 -1.7121818317324058 0.9013266791906985 -3.886080154149602
C 12.52000041 0.78000008 11.39000031 6 3.881120443129173 9.073029664008914 4.640281768146982
C 4.74999996 1.06000004 4.26000024 6 3.7998349760246555 3.8964932844629216 -1.0989812432320283
C 1.84000012 7.92000054 12.81000049 6 -0.3572617057772483 -0.6084553320107985 -3.7922899822066634
C 6.91000034 3.29000020 11.96000106 6 -2.0145071780504793 3.2497467616871836 0.5322622600249342
C 10.76000118 2.71000034 10.30000108 6 6.245630786792827 -5.521294409043721 6.477049339596519
C 2.90000016 2.24999995 1.29000002 6 0.5452725015631772 -0.42609132459114 0.1805640293429785
C 5.12000035 9.65999984 11.28000066 6 -7.214145504791484 -4.994151800948315 1.9304435733544691
C 13.70000078 0.68000011 12.39999966 6 -4.447592057920586 -4.843389237201752 -3.278191043813782
C 13.64999966 13.95000070 3.43000032 6 6.36323364013134 8.402716799694382 5.857206317713742
C 6.13000012 8.21000005 13.69000053 6 2.957216896062403 2.7919624516807633 1.541269799116036
C 13.90000157 2.46999996 2.59000015 6 -0.712442122618404 4.1748115517531375 -1.8754912712323297
C 10.18000032 10.10000043 12.87000087 6 -1.8643020932282364 3.625346644109648 1.6358154475717297
C 7.98000049 6.60000033 7.19000059 6 5.53660450828451 -4.486548212014996 2.66906766279681
C 0.71999998 6.46000007 1.74000015 6 0.650057968157378 3.020204814598292 -3.834186271919467
C 3.88000017 13.13000103 2.91000013 6 -2.838316001390877 -1.980783817364704 -2.8302592995196574
C 1.86000006 1.51000017 5.97000021 6 2.7393712065157776 3.316514634184101 1.3140904518226493
C 12.41000076 9.38000017 5.35000033 6 3.3750118645583993 -0.5172684426461898 -0.2161670814202584
C 1.88000013 4.39000040 0.53999999 6 0.00528730703038488 -2.4567962482139376 0.4883371378799869
C 11.67000013 9.09000009 13.64999966 6 1.7064861868183399 2.135017253122557 1.5785720304977018
C 9.38000017 2.63999985 13.56000038 6 -0.17169630877835182 0.33791194145293835 -1.4935662658484121
C 11.69000050 8.28000068 5.20000024 6 0.27059996129741304 1.2814110784213482 0.5357341605951246
C 12.54000092 7.13000064 12.50000005 6 1.7838430732006403 -1.919993929200166 4.335379367502553
C 5.75000048 10.11000054 5.52000050 6 1.091782359484209 -0.08449662799331448 4.347088482031082
C 6.18000025 3.99999993 3.01000024 6 -0.48972260671957996 -4.50762698385182 0.4373375876142367
C 3.70000003 1.19000005 3.30000017 6 -0.5229944300478341 -1.930988709571978 3.716748502284557
C 13.19000056 12.20000072 11.84000016 6 -4.167507240717971 4.304873853338431 1.2939733825582231
C 9.84000012 0.70000005 6.64000035 6 1.945623045614837 2.695414713324351 -2.079225646937234
C 10.93000035 0.54999996 5.12000035 6 -1.7917547482668246 -1.222701450634002 1.2460301950666757
C 13.76000017 9.81000036 5.49999999 6 -9.172168856516295 -1.58527720597306 -3.980570260424644
C 3.78000020 8.06000038 8.96000008 6 0.1865882988259012 -2.7716478991073528 -1.2604644764032977
C 13.78000067 6.93000028 2.85000032 6 1.9870657408523174 -2.3847924966316834 0.04577395676942288
C 6.87000033 9.22000025 13.20000081 6 -3.0093473468397582 -4.331601984938778 4.7329703535069925
C 12.63000007 6.45000024 3.11000020 6 0.37161318812234323 -0.9018378729644756 0.5042108873985026
C 1.79000014 0.46000010 0.56000007 6 -6.626483519522494 -3.702935984803566 -10.167473933928807
C 9.64000033 11.71000001 12.61000056 6 0.8159408620275042 -0.7987119861569736 1.3823353349013454
C 8.51000023 2.01000000 1.09000009 6 -1.8908584554921224 -0.787337153271257 3.9427743207705177
C 1.33000004 0.35000002 5.73999980 6 -0.048509409166526 -1.2871087804532162 -1.9948642744393958
C 5.92000008 3.24000007 8.42000109 6 -3.4555706547993887 -3.8966511682542184 -0.6848505158207017
C 0.99000012 7.57000024 0.76000000 6 -2.4419546575525355 -5.624165727523235 8.568906204116994
C 6.59000008 9.38000017 4.86000018 6 -0.6624567314290005 1.10024739923911 -1.2964316383315175
C 0.09000000 1.74000015 12.97000026 6 2.4131951221227927 1.5979634514575007 2.538557423810149
C 7.14000032 10.45000074 12.60000130 6 1.1482610430153735 -1.584417845011308 -1.0248344891796237
C 7.26000023 9.64000033 7.97000024 6 -4.899563467298232 -2.8434017108766736 -3.508036415778457
C 10.39000037 2.14000016 6.50000051 6 -1.0042417114235036 -2.7458074138385347 -1.2064851910014665
C 7.24999997 6.81000038 10.70000080 6 -4.212528806651341 0.7681504155327491 -1.41998984770659
C 9.98000053 3.76000027 13.09000017 6 -3.8287246241553694 1.0392744275902013 -2.0224687382233606
C 4.23000005 4.68000033 1.76000009 6 0.058098149520725596 2.566192744361142 -1.2723613029312517
C 9.65000059 4.18000035 9.31000039 6 -0.6124780258724531 6.282766905911987 -2.2254327233114455
C 11.40000156 11.57000059 1.96000002 6 3.6423507798603185 3.913008854735636 -3.1487335348622536
C 5.99000028 1.86000006 8.70000076 6 -1.0124064119793241 -1.9909747789554155 2.618631762808786
C 1.19000005 13.16000080 9.77000049 6 1.463927826837799 6.192715545574038 2.1334888145957307
C 6.65000003 2.48000007 2.98000005 6 0.412927827776654 -0.19076733364050166 1.4323022120305315
C 2.33000012 0.89000001 1.56999998 6 5.850089204398549 0.3216895104669972 6.9545089528194035
C 8.45000071 3.48999999 9.21000099 6 -2.3970796612625516 -3.0132676990907674 -2.5966103167392327
C 1.62999993 3.65000005 4.15000017 6 -4.514224160642577 0.4613132955956143 1.0128528065423408
C 6.08000042 4.35000038 11.98000043 6 1.493404267821511 -3.999655685111408 0.18127116358738848
C 3.90000011 11.32000068 7.19000059 6 -0.6493395197650577 -1.7734001146791936 -1.9705203423714746
C 3.35000015 4.18000035 10.05000017 6 1.5496417542903997 4.477697976951686 9.310293517046762
C 3.07000019 7.95000031 13.21000092 6 4.125754434971851 2.871026231559207 -2.045725483532967
C 4.26999993 7.35000037 11.24000079 6 0.8811283537730965 1.9710819355313989 -2.7541217697144447
C 10.36000060 8.61000062 2.78000026 6 0.4325398746207088 -10.575501192821838 0.5302313704749887
C 4.45000035 8.39000033 7.70000025 6 -1.5449936966169617 -1.6492016273882735 2.3185965028836995
C 5.09000016 5.23000000 11.54000097 6 4.551949129732537 -0.7059436874821388 -1.1854074477235437
C 11.06999962 6.13000012 9.82000061 6 -0.4031210329354508 0.880165622641798 -0.40319508917631997
C 1.18000009 11.28000066 1.84000012 6 -3.0449786842868147 -0.9841446990576462 1.7581985284024553
C 5.35000033 7.59000060 0.78000008 6 -0.9444135258313633 2.1365832340492688 -1.3464772002166274
C 14.00000097 11.71000001 2.28000014 6 -0.07644352607824816 0.349337173724802 0.04938779846794584
C 4.73000003 12.56000043 8.90000055 6 3.849312773396435 -0.6480908492592922 4.047394189381664
C 0.64000010 3.37000009 3.09999995 6 2.489846417099035 -0.33054334548646086 4.946362897291912
C 12.22000023 10.31000048 13.50000000 6 0.37096108177913456 0.1949427684989488 -0.5521911030104847
C 3.14000011 13.60000039 7.44000008 6 0.9042231010558018 0.5518043648637236 0.3150542769969042
C 4.88000012 8.57999987 1.84000012 6 1.4779913126906252 -2.5087832150246094 -1.7892316932827699
C 11.81000139 14.10000037 10.81999971 6 -5.8833538278144974 -4.9938674044122 -1.9819862027199262
C 14.01000023 8.46000011 13.94000059 6 -6.043060739763809 0.4945594049513444 2.2319980147762735
C 11.43000033 1.75000012 5.17000005 6 0.49101601953753715 2.621489613715103 0.8719782937901562
C 5.15000054 10.65000053 7.84000009 6 0.562671089652366 0.5102670422073551 -0.3571819924624239
C 4.99000019 0.76000000 8.72000027 6 -0.8155237813931647 0.5321357472801161 -1.006267972458395
C 7.40000006 7.42000057 3.94000026 6 -0.5513811128759787 0.9285248622087837 -0.6004171441997962
C 12.76000022 3.30000017 11.98000043 6 -0.03214812272895528 1.73169667976032 0.38392246676958197
C 4.57000011 3.67000013 2.67000004 6 2.5856031936606088 0.46136060930505846 -0.36954732756976505
C 4.13000009 2.71000034 1.65000015 6 0.7222453175034538 -0.43537406867230405 3.9411795401945793
C 7.03000025 5.05000015 3.22000028 6 -2.594469371386884 -1.2340418267965363 1.0268684644062722
C 1.91000004 0.20000007 10.72000031 6 -4.9678808637794445 -2.0552154822326743 -6.147080444256245
C 3.16000004 1.72000007 6.61000016 6 -0.8906738946534557 2.3848110106919007 5.1091575430619045
C 12.50000005 0.80999998 1.84000012 6 -5.472875513060479 -0.41785102495609905 -9.426404445699434
C 10.06000042 0.26000003 10.77000044 6 0.006463978413083119 -2.1550242665845802 -2.3654705033976993
C 12.97000026 3.29000020 1.45000008 6 -0.046387492153845515 1.5241597217985665 0.3103522199811656
C 2.14000016 12.53000067 5.16000036 6 9.091828120762308 -4.204610960231751 5.574673530326842
C 3.65000005 12.39999966 7.99000018 6 1.3371605136917315 2.750569127270529 0.5219375857770977
C 0.85999997 7.59000060 2.82000013 6 -0.39418748460116276 1.4772183506765537 5.951996248908414
C 11.70000075 11.57000059 10.29000097 6 -3.1914886712573587 -3.2831209266260837 -1.5119239851127462
C 10.60000041 0.83000006 14.14000038 6 2.883327796014689 -2.1968459857770646 -0.8619169306209655
C 7.93000037 12.97000026 9.98000053 6 0.5006412737327208 -2.6240620395264043 -1.4338995640037224
C 9.87000088 1.52000014 10.37000086 6 -1.5312063788290433 9.364407543664619 -4.090701661906585
C 0.96000007 7.89000035 13.79000093 6 0.3151391331062334 1.3397293395468792 -5.23436864659082
C 8.96000008 5.94000059 12.23000048 6 -2.6824008718299543 3.2706347358478793 -0.6669937047411351
C 3.75000030 4.94000007 11.27000041 6 -2.203360363576295 -1.6243717012396486 -4.58266909842751
C 1.73000004 8.56000036 9.03000071 6 2.541603500995342 -3.2453584151362382 2.5771474109358166
C 6.19999976 10.32999999 6.96000047 6 -1.5189526423624564 -1.4172857663559661 0.07167204133669472
216
energy=-1874.0669035588007 config_type=LD_iter1 dft_virial = "-0.06019542709567345 0.018478611968216 -0.0272886876220939 0.018478611968216 -0.07600839622328827 0.028745496036616757 -0.0272886876220939 0.028745496036616757 -0.07935353709624539" Lattice="14.21500000 0.00000000 0.00000000 0.00000000 14.21500000 0.00000000 0.00000000 0.00000000 14.21500000" Properties=species:S:1:pos:R:3:Z:I:1:force:R:3
C 0.88000004 11.42000107 3.24000007 6 1.3739474370640163 -2.9004594730690783 4.008803173697095
C 11.51000022 1.54999990 14.14000038 6 -4.4486031313202306 5.693606824603748 -3.7887805392365883
C 7.87000084 7.28000073 10.22000119 6 -2.163454849616299 -3.704443337872922 0.6654755518033181
C 12.68000033 3.41000039 10.43000123 6 -2.258899972830882 -7.254717010639852 -3.9330462106852373
C 4.78000015 13.71000104 6.75000000 6 6.596179088623509 5.945752382100136 2.867478731909796
C 9.32999990 2.62000034 2.51000026 6 -5.122260354901234 -4.813069377919252 -6.7497578466409
C 2.66000007 13.35000033 5.33000039 6 -2.47904140584445 -4.643221389485926 -2.0142263814705172
C 2.40000004 12.01000118 13.77000042 6 -2.554009464179271 -1.2024100406358629 0.4527731710409434
C 1.48999995 4.54000049 4.28000018 6 -2.2457796754902364 9.314080156640646 2.4834143240118816
C 3.17000001 5.76000016 5.65000009 6 6.505571792199591 -1.1868006307548942 2.9079473818680674
C 0.21000004 3.53999997 1.83000015 6 3.0524516789817397 3.688655987302087 7.298468820609987
C 2.98000005 11.95000081 1.25999997 6 1.2257351851123834 -3.5630293459771845 -2.897166541747655
C 4.17000010 9.79000000 7.32000060 6 -0.0745268065663092 -5.580502373618582 -1.3851366150681097
C 3.64000037 7.00000048 5.98000046 6 4.279706045590841 6.544758343487816 3.3372699242465726
C 9.72000022 10.78999995 11.59000010 6 0.5106049238063204 5.136627265629843 -0.9881787070672113
C 5.91000025 8.24000066 1.18000009 6 2.572169700134621 2.53779834734124 1.2479325147540012
C 1.92000001 9.69000060 13.12000078 6 -2.2459427020760385 -2.5121178029815217 -0.4812837952166536
C 11.40999982 12.13000109 12.85000036 6 1.7962608648119307 4.786627699972824 5.4992565060317515
C 7.99000018 5.80000018 10.51000027 6 -1.050016182472377 3.3354714890082446 -3.8863383224337427
C 12.15000060 3.75000030 0.75000003 6 0.9687389438390673 -8.988974287784112 -0.08823852527500695
C 2.86000014 2.78000026 4.93000024 6 -3.512462819008738 -5.494906216160142 -5.373370153584356
C 4.32000019 12.53000067 6.87000033 6 -6.591451831914696 -10.921905945120002 -1.315951114874486
C 1.98000010 0.56000007 3.69000006 6 -4.623848482586345 3.9741206818361747 -5.164251786312376
C 13.76000017 0.80000001 10.86999983 6 1.5229701934296063 -2.1881567201817544 1.5777455834207803
C 5.36999984 0.40000001 2.82000013 6 -4.999590820416591 1.5501601479764837 -6.655489394809015
C 14.21000101 5.09000016 2.35000020 6 0.3779187684646785 -11.063586848050539 -2.1768749718765745
C 7.83000040 7.88000053 6.10000036 6 3.519702845112596 -2.106283945944789 0.8773447998559151
C 14.06000035 12.20000072 6.60000033 6 1.7506926198226997 -4.525551679818849 4.72923925609376
C 10.97000023 4.91000031 8.88000104 6 1.8437041726776113 -4.461944568824582 1.63311599473616
C 1.76999992 13.48000049 3.99999993 6 3.8282185731760974 0.8427970492110202 4.660589635087536
C 5.34000022 6.03000073 7.56000041 6 0.8854138444339463 -1.3031501850725882 1.6949678699659392
C 12.90999989 5.62000032 10.42000013 6 -6.314797772926233 9.317009492390582 -2.076294254069498
C 5.51000025 12.65999983 4.06000045 6 0.7529514006532632 -3.7389581746329865 1.4352161193969513
C 1.06000004 12.77000047 3.16000004 6 -4.340704216932823 -1.7236435778452537 -5.74554082063102
C 0.04000001 5.09000016 11.83000090 6 4.507240245705058 -5.308614656577167 7.551878991275107
C 12.57000068 13.87000081 0.35000002 6 1.114198257892281 -6.526438166623366 -0.2582793685022637
C 2.15000013 6.45000024 13.63000015 6 1.7544617739152675 -4.927324272035142 3.6328237530401766
C 9.82000061 1.61000014 8.04000002 6 5.494295252172971 4.444941461632812 -1.2372941300413718
C 8.78000065 4.64000031 5.84000062 6 -1.5891677300159412 1.9189026282062474 0.8349218879858198
C 10.40000062 7.17000009 12.22000023 6 -1.9663330790856666 6.3767982749172 0.69756658951327
C 0.05999995 10.45000074 2.60000012 6 0.42588047001644325 -3.9965046949183165 1.3211031664093946
C 5.42000053 3.40000013 2.75000007 6 -2.699593233859501 0.14496869145745575 0.7411852011057313
C 8.81000041 10.76000118 6.97000030 6 5.205121059962572 3.2312105874535333 2.0329579818953505
C 2.67000004 4.10000032 0.40000001 6 0.5244179555667627 -0.9663007449643416 1.8441094248845897
C 14.10000037 9.08000083 11.90000054 6 0.8746083188999111 -2.109696704378174 -2.261510969600969
C 3.97000031 13.82000069 0.80000001 6 0.4151263724274559 7.591449709312839 0.8899215038174034
C 12.72000120 7.83000040 0.73000010 6 6.191384590356195 9.621045332160952 3.6809875664159803
C 9.44000054 7.15000058 7.92000054 6 2.8963040951092 6.063131009598242 -1.0463277702535345
C 13.35000033 8.23000055 10.90000059 6 -2.5152749645280186 -0.5728831367005475 3.488423340375501
C 4.86000018 4.43000027 11.87000078 6 -4.780750000133287 5.924932807106354 -5.102729564210356
C 6.42000005 0.99999995 7.88000053 6 1.2900206307018338 -2.331733257166761 5.288740841492818
C 11.06000037 10.38000111 8.77000040 6 8.178584558145088 4.953202813983295 4.831013102225951
C 7.92000054 9.65999984 10.37000086 6 -0.9096122354173818 4.15762793247425 0.5442861135771565
C 7.69000056 13.50000000 5.29000038 6 1.254583690887059 4.241711079789379 0.3751498879032941
C 11.03000075 11.82000065 8.44000060 6 -3.911134306138636 -2.726674161162877 -2.088420449232366
C 6.72000024 10.94000046 5.40999985 6 10.058866856738089 -4.449894487020385 4.858405682876318
C 11.78000064 13.48000049 13.47000123 6 -1.9669291289687727 2.1114005121976147 -1.7078135420800284
C 2.62000034 9.38000017 1.25000001 6 -0.4069056154115332 3.1318692831221133 0.4064000787117113
C 12.05000020 8.61000062 10.34000010 6 3.383511361036482 -2.063705207401198 -4.58934393141529
C 1.65000015 9.35000040 4.01000018 6 -6.3298795320910095 -2.3424354125312496 -0.9827180878620146
C 2.48000007 10.68000030 1.43000000 6 1.7105006522087867 -0.04711519757627471 1.0703554204594106
C 2.03000023 3.40000013 4.05000020 6 -2.887757799201123 -2.6228807396286515 -3.825777802904119
C 4.94000007 4.78000015 7.00000048 6 7.882112226252928 -0.18365793451706613 7.0079713873735034
C 0.98000001 2.85000032 12.65999983 6 -0.3411405878430518 8.105982699561926 1.6847136520028183
C 13.59000113 7.26000023 1.56000001 6 -4.712402261164495 -7.364667385755223 0.6356684291329477
C 13.71000104 13.35000033 10.71000105 6 -2.1435974914743654 1.1550958169122525 3.1907362804213064
C 3.09999995 8.36000057 5.54000001 6 6.0591479152542735 -0.7035029172101607 8.062752883234028
C 9.35000040 2.54000003 6.91000034 6 -1.165061524103654 -12.860772901593883 2.662268374182014
C 10.45000074 5.05000015 13.11000067 6 4.197188364922973 1.858192453356534 0.7180760539984125
C 3.14000011 4.59000019 1.76999992 6 1.64570504140446 -0.09543175194887071 -4.015330408482588
C 6.65000003 7.41000074 9.32999990 6 -2.198739562713732 1.708469762658841 -0.45655621067867425
C 2.14000016 8.29000093 4.74000028 6 -5.869528453347243 -1.9259950561078174 -8.514998917838229
C 9.11000060 5.22000032 11.19000052 6 -3.5959735732954825 0.7788957703710782 0.10285691865490096
C 4.93000024 8.46000011 7.85000034 6 -1.355636517229676 1.2743495072868074 -1.6078165314492472
C 3.27000026 9.76000024 6.18000025 6 0.442163585977541 -4.559957489335412 -1.219010467017907
C 9.95000077 5.94000059 12.17000011 6 -1.4443255513033035 -6.336261225792016 -1.1785932450046837
C 9.85000038 13.39000134 11.49000071 6 7.973905451089652 -3.4893619003726277 9.216494088073716
C 12.49000079 0.97000004 0.54999996 6 5.207420403385668 0.6672446731129693 3.573918184782198
C 3.87000034 2.29999994 1.41000006 6 2.33406860015139 -6.640211180894156 -3.1302554742065074
C 12.10000033 9.91000075 9.71000096 6 0.6156346731394994 1.7602695317495383 2.7469326572761847
C 4.68000033 2.28000014 6.32999991 6 -0.3240438817912946 -5.54850802044532 1.5147653790766482
C 9.62000082 8.29000093 11.71000001 6 3.1267846021952175 -1.203812480697322 1.1210417745398182
C 9.90000050 12.06999971 7.47000027 6 -1.7104754525157133 -0.10557077131508392 1.3993723845368469
C 10.40000062 9.32000064 8.57000061 6 -7.987730311277455 -2.8296689067105065 -6.720375518796627
C 11.67000013 6.01000022 9.65999984 6 1.5343995399370736 -5.870979235677047 -1.380106447762965
C 11.28000066 3.04000014 14.12000087 6 -0.4622539127105423 -3.9700707311636445 -1.7420012971095875
C 11.06999962 7.89000035 13.21000092 6 3.620507274480631 -4.206278768489658 0.4843453007853611