64
energy=-542.271701360877 config_type=Amorphous_Surfaces dft_virial = "0.01850654546596151 0.004054057513900665 -0.010601849832593347 0.004054057513900665 -0.0033950583354630205 -0.006829672804623063 -0.010601849832593347 -0.006829672804623063 -0.007715406690090929" Lattice="7.52739300 0.00000000 0.00000000 0.00000000 7.52739300 0.00000000 0.00000000 0.00000000 22.52739300" Properties=species:S:1:pos:R:3:Z:I:1:force:R:3
C 0.72662677 5.80608899 18.78998586 6 1.0893683317436562 -0.08030165051574913 -2.3438933947733602
C 2.72645938 4.67108609 18.97457532 6 -2.1059717783183474 0.3971271059401065 1.8691856908899944
C 7.08732655 0.89128097 19.92363186 6 2.8394391877107257 1.2215998640510737 1.203668996730638
C 1.97579764 0.37740843 20.14437779 6 -2.1775939345483457 1.5328525873500296 2.2873560833848416
C 6.28412361 4.61783731 2.76620617 6 4.170039038452684 1.0283485606647536 1.3139469678559654
C 7.16943535 1.88489684 2.78902642 6 -1.669710063314515 0.7026528132785173 -0.2608317374149959
C 6.56966021 3.98190057 22.43140378 6 -1.7066888129218287 0.45292128352268163 -0.3722030666520437
C 4.45229488 4.85246615 0.96126639 6 0.6760285661271677 1.2015182800687307 0.8926775273925258
C 1.04057175 2.06805337 2.31227920 6 1.603120645786914 -2.0334162048857283 3.5246471277495104
C 3.58528976 1.05928485 22.45568831 6 -0.8727831411301574 1.9172538482880084 0.9203673615652699
C 1.91624091 6.54500047 20.72657573 6 1.7498049734911714 -0.16795801145281272 -1.7819824101488038
C 1.14232705 2.68710617 1.08545990 6 -2.300759748702702 0.9973637380527842 0.2004861866956727
C 4.98441382 6.74881216 21.99858498 6 -0.2640660408790646 -2.0146419192665053 -0.48813554033539874
C 4.25628910 1.72435261 2.21036527 6 -1.355471433526072 -1.6745982894913274 0.45867761341190433
C 2.37338701 0.07540942 3.73477143 6 1.5580065095524571 -0.9177147081596941 -2.3743680521704538
C 0.49138822 0.33539805 22.03618320 6 0.9256433544477443 0.6471502321443642 3.0369548963004256
C 6.93365482 0.66279448 3.54398694 6 -0.7471852994544814 -1.465195011403782 -2.231240995425167
C 6.97731370 5.52005558 22.52592872 6 1.0545392702393486 -0.5251333182823803 -0.00922051626765592
C 5.19489479 5.31625142 2.05073617 6 -2.5027558598649837 0.40129636944514785 -2.463638222023124
C 3.28896641 0.41588094 1.18478318 6 1.3775412218639707 0.15361424329947504 -0.623368921795268
C 5.15320808 3.68135435 2.66077797 6 -1.0286987849705307 -6.344143072650072 4.382249253780949
C 3.16048886 4.79878078 21.53265091 6 1.0623763747852133 1.0945898110043795 1.712744453451231
C 3.11311145 5.61248444 20.24953566 6 -2.5672249032182557 0.25850256578377195 -0.20087138200408222
C 6.13762549 1.70097252 20.45081791 6 1.0925188076572967 2.142813729591834 -3.9975707962191613
C 6.46555636 3.17082397 3.47156137 6 -0.8559548889515508 1.474415527671438 -1.5447591851875428
C 0.64413407 0.77852815 20.76050198 6 1.3223662367397735 0.02000701346202344 -4.133623939123096
C 6.86341672 4.06983557 20.91481463 6 0.7858349429964049 0.23884474806862446 -1.3900176413326155
C 0.88389660 4.31826212 20.71076150 6 -0.5153368090301869 -0.7467682188201421 -1.1239803673198612
C 4.28666966 6.35165938 19.73843416 6 3.5338748439294734 -1.5300934780982045 1.337548794676844
C 3.81291060 7.18649995 3.59800763 6 -5.174453033492099 0.6336709677472835 -1.1895525400944125
C 1.98711131 6.03235489 3.13601585 6 -1.353734711821801 3.369214392313138 -2.4036773523327595
C 4.31926327 0.42038984 21.57374087 6 2.697367946677274 0.14603787843500368 -0.11426106546929496
C 3.89416128 3.70961971 3.57487200 6 -0.14747580377854574 -3.5936001736315175 -2.159415698812229
C 0.69447728 5.73582830 20.17551064 6 -1.5627193664366559 0.873401819309085 2.5444418092825414
C 6.47409242 6.96414829 2.98280705 6 3.573661559336408 4.7294171967836265 3.4873706103403688
C 4.57395261 3.31130771 20.08722579 6 1.2300854749839938 -1.6830905860571035 0.6055023394061423
C 2.66648111 1.74858328 20.41385046 6 -2.3497988657032223 -0.6655748077372606 -3.07829473564781
C 6.98216887 0.54164862 0.42349246 6 -2.049454009548947 -0.5796016834416181 1.3348292849427057
C 6.10820843 3.17910410 19.97012840 6 -2.4386087554477123 -0.5083528940926685 2.890583764781511
C 5.12770528 2.62374810 1.45722947 6 1.8334715544514109 -0.2073955311128715 -0.6231529244260664
C 3.43794857 2.27713424 3.19981343 6 -2.0926323979317973 3.8697337818160955 0.1541033230568815
C 5.50379641 6.78707390 1.95913979 6 -0.808689521775736 -0.19660234828564774 -0.7452449230878204
C 3.80592517 5.80692453 0.08711343 6 -0.27058813287005196 -1.226410948310314 -1.0352162484464635
C 6.79695737 5.70234646 20.91136794 6 -0.04495985239931304 -1.3766571754885957 -0.3601622418779555
C 7.35416510 2.93703820 0.56471669 6 -0.6138866372873178 -0.6673825000056979 2.8264978596188466
C 6.51017875 1.89333505 1.23664124 6 0.6621317068162971 0.00429629052930992 -1.614491364437027
C 5.44093515 6.24501880 20.62150797 6 -0.5921660446962951 -0.7242422646096677 0.671353251642854
C 2.02752589 1.62143056 3.21715952 6 3.676472192840766 -2.02253250887522 0.7362049189072829
C 4.89180431 1.17258717 20.48992547 6 -6.189622668958852 0.7974072591911058 -2.3694926829799035
C 1.70230487 4.38655063 22.05310127 6 2.290709185401971 -1.2179675082923336 -1.0863299687502204
C 4.98389443 3.67681533 0.27686166 6 0.6704440055744054 -0.7883194270216737 -0.8301668601866818
C 1.52751881 6.74102131 22.21034247 6 0.30100879092484495 0.06722609548729512 -0.1403777188030208
C 3.00305344 2.31461313 21.84918331 6 0.8153365836731901 1.3869299075119337 2.663048536108392
C 4.33354273 0.21166276 2.27393758 6 -0.4279226737142993 0.34014905706252635 -0.46328967152380895
C 7.00242508 5.71982506 3.19611894 6 2.2665087373007338 -2.4634849667468806 0.8760873865994915
C 2.13451272 3.07054404 0.21006794 6 -0.9955195319433628 1.3994176411284889 -2.8088909883522133
C 1.59923228 3.79323399 19.45968020 6 2.3133580524011106 -1.7106857928109596 0.35582018047755287
C 4.04915782 3.50012483 21.57628647 6 -1.1150519617800778 1.1214789120727264 -1.7289632844810185
C 3.91446265 2.01138716 19.72967101 6 3.7819246798822395 -0.9403358040685074 2.3463696503274214
C 2.70921412 6.68414433 0.71947988 6 -1.070499418705545 0.04773336147575168 0.3282532590934734
C 1.73014870 2.41581893 19.49088064 6 0.07767985387720207 1.0193615272676158 0.10856130631962511
C 6.15106188 6.75878596 0.52184706 6 -0.37133084870402966 1.9784263603637038 0.40815274307894717
C 0.97394680 5.47736774 0.35530204 6 -0.2374500221989227 1.0969801818902107 0.31828652334317104
C 1.82256250 5.96709240 1.66531500 6 -0.6057481649834718 -0.7377415859053171 2.387455435626269
216
energy=-1935.9552844413952 config_type=Amorphous_Surfaces dft_virial = "-0.053135720094904526 -0.018945609139323118 0.013540336368378087 -0.018945609139323118 -0.1265470031700612 0.013053839986455052 0.013540336368378087 0.013053839986455052 -0.06684484172285848" Lattice="11.29109000 0.00000000 0.00000000 0.00000000 11.29109000 0.00000000 0.00000000 0.00000000 31.29109000" Properties=species:S:1:pos:R:3:Z:I:1:force:R:3
C 2.55885456 4.99065049 2.12278755 6 0.01805275155019944 -1.4960759495667546 -4.44607390498277
C 5.21156066 0.71811332 0.91432565 6 -1.7699148428432905 -0.6597475072838718 -0.2164756490905464
C 7.47769372 3.79883078 21.03199323 6 -0.7182190236856459 -0.39768715626167916 0.4565711247827382
C 5.43206436 0.63761914 21.11281812 6 -0.5155229781912607 -0.2283961324732223 -1.1166441709587638
C 3.53384018 2.46591760 8.08104916 6 3.5695858946913543 0.7441140225762148 5.8550196014903015
C 10.64189749 5.02950313 6.78243763 6 2.646816333812892 3.1568812641962083 -0.7353450436660803
C 10.60567567 1.35204028 20.87372290 6 2.0059197397863646 0.8760693868187247 -1.7473271750987585
C 2.25562105 0.46382669 20.54454063 6 4.3138943148998505 8.607450420371569 -0.2557192853977742
C 3.61450373 3.66411678 4.05132000 6 -1.2496759220911284 1.8764082314925354 -2.936156638285796
C 6.07823086 6.11182185 0.09140127 6 5.134286779850709 -1.3879651520457499 -1.9219893334680285
C 4.46219360 8.69669109 2.35881624 6 1.917568073032252 -1.8698197974524364 2.669479086357194
C 8.84576735 1.01288981 8.77683783 6 1.3846434210750995 10.689493290138532 -3.855042875033684
C 9.86013629 3.04288101 7.76122293 6 -0.35559441179879214 0.6900725093608755 0.19255754040762255
C 7.48986551 8.90037106 4.10708073 6 4.868710300225584 -2.059161548456207 2.354802290476942
C 6.77583956 8.95597968 28.95348912 6 -7.848996229598169 -3.201491920848645 -1.2811673099618206
C 8.65616736 6.72375377 26.03622080 6 -14.68903069097633 2.8053825739410385 -7.760750504410855
C 8.82578212 9.80986836 29.19658960 6 2.1566992747547937 1.781208933855282 1.5076909509558454
C 9.71920091 0.66098041 29.13272449 6 2.1514731669790157 3.1754446952407345 -0.9617817714329738
C 8.24908970 3.60075118 27.99319686 6 6.2255630883556465 -0.3823873426098992 2.857341255381934
C 8.55776551 11.10270945 28.51963816 6 -0.14426207149249623 -0.18260623304083454 2.747915959585503
C 10.80992020 11.23797671 20.85845285 6 -1.7248516202744313 2.8084816219096314 -0.03394604368783336
C 2.71188271 9.30927788 1.35981690 6 6.102800983569916 -1.7351886372290792 1.2710560616859334
C 8.98792217 3.15197552 20.92657355 6 -0.7203717974653552 1.122015305539577 -1.2224355681581036
C 0.05916531 2.71248113 20.66310257 6 -0.7356818967061447 -3.519882328640813 0.5374945391541176
C 6.66701604 0.34121674 9.16165566 6 -0.12692159698121158 2.441173467067256 -1.7380228312806743
C 4.39883930 2.08589338 25.64326729 6 -2.825790211094986 0.3396188349490814 -1.8037873445697052
C 3.86209475 1.47042736 4.64603846 6 -1.2163778705108996 3.0798077457911224 0.9017674166797599
C 4.75768143 0.52177256 5.02991755 6 0.22825367706543934 0.08998810396553991 -0.23457571435019
C 1.15233477 8.24816383 20.89240368 6 3.5297606083256334 -4.9396541218604 0.5732925031431295
C 6.72631684 7.01496227 30.46725818 6 -0.629465190401258 1.6503489848422945 -0.58679285299768
C 8.91004752 6.44156685 13.41020340 6 -0.29938675353803107 0.18238303575932624 -0.8709517920069982
C 6.70869145 7.73281590 3.91013461 6 -5.354856607646527 3.2148513581337643 -2.357030663335872
C 8.82537564 2.36791094 2.45400373 6 0.2232697949108377 0.12531344513956064 4.339303833989166
C 8.12937027 7.47135942 20.90998927 6 -0.8543981650549479 4.57014433669052 0.9880125948047063
C 10.30420357 4.55592094 2.02281251 6 -1.619074108620254 -2.024151460585331 -1.5447689564971019
C 0.13602376 2.92442618 29.84781976 6 5.410407016769574 -4.115202449206902 -1.64656234524841
C 3.74601106 5.61076844 30.00164676 6 0.7097544982101955 1.666830098391827 0.9346113595052146
C 2.67779490 4.64018635 30.15850900 6 1.369921657525659 -0.4131906245758493 -2.459387188085456
C 1.77396573 5.74920850 7.37049109 6 -3.9546840042847333 -5.152761240550302 -0.32628408307758555
C 2.04498577 7.81613285 6.26776178 6 0.8837578646034008 -2.534334675242258 2.8599856803163024
C 5.19894852 7.06560281 8.59319043 6 -3.7380792710521162 1.1101822496634828 -1.9662477086968868
C 11.01576806 9.23632615 10.03683616 6 1.9603031525287886 4.701534507816953 -2.4775834236023395
C 6.62408731 6.39845746 4.26269132 6 -7.139689668789342 3.9437313948278607 -6.814259803879003
C 1.51323188 2.40869436 30.35364023 6 0.00876229327727824 -1.4615076277438404 3.240788527939273
C 4.04128435 6.31816652 7.88476015 6 -1.1908989236957692 0.9907634755853238 -1.591692842117798
C 4.89209056 9.30716645 20.60389983 6 -2.423111458486948 -6.828665285566399 3.4439330251144766
C 0.96773674 3.31649799 7.91120112 6 -0.8320676370356558 4.5336767808569824 -2.0214833787962405
C 7.19771985 8.64248256 20.87766558 6 -2.088494505473235 -4.774830643658262 0.17790314746619496
C 4.43529823 2.75656155 4.64331614 6 4.277977552357777 -1.3481717510059588 -0.02393816558149256
C 8.20429794 10.87067755 21.05001690 6 2.5477805114750574 1.9137233198604635 -0.6466806950060761
C 3.29529333 1.22011519 25.33789755 6 3.185794054902194 -1.3426859321076887 2.7561274595713168
C 6.29936686 1.29198297 1.11424442 6 -1.2674026204697235 -0.8352474268779738 -0.5814983460549884
C 0.14286616 6.50066441 28.03659760 6 6.4844189641218986 -0.20766655638327447 -2.2198245059039614
C 10.38092653 8.77297369 30.78786669 6 -1.371342097367885 -1.310243641533059 1.0369025707645876
C 7.21607916 4.95632558 5.55254134 6 0.9800726343687456 -6.400248389300188 5.60383574656631
C 4.40379609 10.44677616 4.94158281 6 -4.914910080380006 3.219450559259407 1.7626172174409795
C 9.96494019 7.99364008 5.36754841 6 -7.705280322882082 0.19525030761033582 -3.956226328356723
C 6.39330873 9.91134138 28.01450609 6 2.1540044504342784 -2.13986330838443 3.938702770361067
C 1.66367436 5.94920757 28.40943094 6 -8.167147497445864 2.6427113552391606 -0.4511285053583084
C 11.24400615 8.45998468 5.53626997 6 -2.787424449809728 -6.675874917946593 2.1970023267300105
C 0.14338555 0.06800624 9.22192230 6 -3.0683387997659675 2.02576784089819 -0.13943761596754337
C 9.85147603 6.64031261 0.88732144 6 1.436445761563049 -0.0186452014771524 -2.6396472782732006
C 1.11517579 9.69165065 9.84305043 6 -0.2455082669084938 -3.7590541584399433 2.038326030799461
C 0.58437036 5.40008799 21.00649099 6 -5.023512014776218 3.6819045266761856 -0.68258820051804
C 10.67710311 1.20475930 3.93917274 6 -2.1774185652557323 6.5261079992161575 -4.2831892603089425
C 3.99041799 0.15099575 0.99749737 6 -1.5844106450990012 -4.113741381288088 0.5434432095578198
C 6.07974387 3.25268075 8.08345857 6 -0.583887174102468 3.9282274122342398 1.8145897844270378
C 4.92175226 2.16681663 8.56693720 6 0.5601110065478766 0.6435543902266081 -3.526861100783827
C 6.33811788 2.96342561 21.14169979 6 2.654331499422756 -4.276087575377264 0.023341601418935758
C 7.10438770 0.07291786 4.57413154 6 1.1661013971525245 3.076472643554759 0.6455580229656781
C 1.27046216 4.87237632 2.67457463 6 -0.22981502947709664 -5.274167704704566 -0.25070454647614376
C 2.48174771 8.93923499 20.88670870 6 -6.671637769554088 4.441365676613625 -0.8474913920350016
C 0.53184421 7.64309690 27.24599692 6 -1.6638621916831071 0.786217566907562 -3.6208621273014625
C 4.59041522 9.69013764 9.02406874 6 -0.6306027765457197 -2.8744734467157746 -0.14437161301544846
C 3.69144122 8.63123664 21.16266482 6 1.4153736753590813 -1.4432800211804777 -2.5345841007757404
C 9.51987929 5.94886884 20.99422489 6 -0.5282308234126215 1.693894054473337 0.3355472845396313
C 7.55842501 1.64100186 8.58589960 6 1.9015801534757297 -2.87188662107986 1.1603918666932955
C 2.48271874 0.18466578 0.49824803 6 5.606501771237598 3.6416323314679984 0.24482427523935543
C 7.47411444 3.00512360 8.03611515 6 -3.3936791800519224 -6.595263156922203 2.873656256668962
C 9.35181142 5.28172350 6.25221011 6 3.3769717835441786 5.043588970243507 -1.3049542773848721
C 3.05710778 3.99925891 0.98222732 6 2.250125851126243 3.1822722692253067 0.3697561250266599
C 0.02748251 6.58815907 1.31169120 6 -2.264405848627721 2.475186367083652 -0.5549178126569295
C 9.32050123 10.42671190 4.46098295 6 3.2009539845434434 3.3252697275490726 -1.1518856845823564
C 0.18617878 5.39005022 2.05169419 6 -1.1411814721000657 -0.746682334151912 0.8574966987440901
C 2.77609513 10.35847984 26.46666103 6 -3.4667701183924913 1.1635310284590255 -3.8039656685709113
C 0.89173641 7.81644900 1.13261229 6 -0.4478669450833642 -2.446853683597808 0.3094234312935987
C 10.93636912 3.79441596 7.34818054 6 2.5804567991996556 -1.4026997725814523 1.9344240963011843
C 10.27222720 10.56043228 9.43905117 6 1.3612617058590264 -0.20283387238711392 0.7684579546441361
C 4.15296452 4.55046735 20.84524801 6 10.010240191856854 -4.6183734635565346 2.035042356508146
C 4.35244421 4.91133058 7.73553294 6 3.0439300684872856 3.1700365325394864 2.754412337603966
C 9.03431726 6.58862200 5.61227603 6 -0.00817652898318152 0.39291310012287334 -0.9102298850374082
C 9.02506986 9.03089606 4.55807921 6 -2.0844769544060853 0.2586743351202323 0.7461238266686907
C 7.89327358 7.55379567 25.36108424 6 -0.4236063262864207 -0.9769432439125747 0.3966585973607192
C 4.50646597 7.68437712 28.72212280 6 2.958624993197817 3.4035708310024546 0.3169910534074119
C 7.92115128 7.19634234 10.92005846 6 -5.543646022520482 -3.202097742041311 2.255284074014557
C 5.40674974 5.35921425 4.14456745 6 1.4992495680556666 -3.210653294979496 2.4506043236301585
C 6.26509840 6.14298526 8.71819833 6 -0.19737736741752113 -0.7746478221101134 -0.46323515790205805
C 1.54481306 10.75561006 25.44625859 6 4.154405971716993 1.7662315734189529 -0.37739317486628793
C 8.32314796 4.42529432 6.42675181 6 -1.5962077014135618 1.4011152775945235 -1.2334051488368423
C 0.40518076 6.07460642 6.72386071 6 2.019139293060953 -1.213083396351125 1.296404381520642
C 5.83127214 4.90455593 8.11312252 6 -2.6449016714187548 -4.691028807202547 0.4665718029767723
C 5.18476691 0.76598755 8.87380892 6 3.3390524168219367 -1.5840897347219016 1.7420280396410126
C 6.79882822 4.94159070 0.81788651 6 -1.4247423041084757 -1.1512459209459593 0.32583614567621744
C 0.15139093 8.86842857 0.41779863 6 2.49874499443069 1.0149135243004141 -1.6562225704462266
C 2.68694069 0.28986486 9.36035408 6 4.113652410943156 1.557930396193786 -2.8315028272309184
C 1.87720017 7.99469015 26.96753751 6 0.6767161577524594 -1.6441776314365344 6.927434196869434
C 3.60269325 7.34872689 2.08001263 6 -1.7051454602909384 0.1565569503151216 1.0369282847371113
C 7.52546632 6.17330184 5.10798882 6 8.684956962073958 -1.0639783552734585 5.0149955470762695
C 0.65938836 11.27118381 30.59686588 6 -3.9203584223624457 -0.8471442534059276 -1.6737579568692431
C 6.65612014 1.42055462 21.20584653 6 -0.06793991536456136 2.850855677231931 -0.8498884485536887
C 0.20213309 9.17428161 21.00257961 6 1.6465926877359884 -0.1537978410632964 0.32020478569346145
C 3.75770863 0.05281972 26.27831996 6 -2.667419911437472 0.5012326951007728 -0.20458396535709736
C 1.13373835 3.23435531 3.17526336 6 -2.992628636184104 2.6473506701619405 -1.228268525685448
C 2.74995626 6.68593991 7.23825494 6 1.7608892384873667 2.823371040559928 -0.9415855031331739
C 1.55322492 4.53119345 20.92813810 6 4.422159396255999 -8.692092075169917 -1.316952931244021
C 8.16261124 4.37695717 1.46874118 6 -7.925029360674934 4.327342208250451 -4.284531529674695
C 2.92377130 10.32569051 5.12973613 6 -0.3159316377394231 -0.5315252975723963 -0.4341495693007112
C 10.78733802 11.23082945 29.71818078 6 -1.9848507392590997 -6.12891506550639 2.025424302225269
C 5.25478296 2.11151287 26.52113882 6 -0.4363583995405228 4.121354259993544 -2.166432527634578
C 0.83612780 9.41174452 5.21913477 6 -2.190848458825567 2.200627996855894 -0.5475440738959473
C 10.27891153 2.03061221 29.14398928 6 -2.764266960434064 5.360315684013372 -0.5210987959933648
C 6.19114176 0.73053352 27.51096987 6 1.0861941989752935 0.39187374135345326 0.9064874734762652
C 9.58191254 10.42346006 20.91552780 6 0.37650038574025463 -2.807020039711367 2.4063022346480096
C 8.51129139 6.78122541 12.19457585 6 -0.46347429784653127 0.369663040446123 -0.9177733360170488
C 7.13585597 11.17082860 28.20040646 6 -0.32661527904369464 -0.23540730422161613 -3.2763411806304057
C 8.06226732 1.04081268 21.10443211 6 -0.4687605763180152 -3.9812619662855395 -0.8281904842584872
C 4.92666388 3.05089768 21.05837162 6 -2.365309533929699 3.447912519502291 -0.6464734403875325
C 4.19450444 4.89945235 3.46235911 6 2.7396098321808 4.396891304015566 2.5822259205093068
C 2.36785448 8.01726104 1.48078825 6 -2.0024750960270494 -3.4639801523736375 0.6221500794976305
C 2.80649075 1.79995782 20.72355696 6 -1.7055383697911053 -1.6734139039168718 0.17643693675287647
C 1.96562069 4.29524355 7.85381326 6 3.1997269137745983 3.6784819969332414 -0.8495994235025192
C 11.20832631 1.34545758 8.78009211 6 6.997806654034765 1.1410559879141486 -0.1361246277475512
C 7.31177115 3.17701916 27.38568035 6 -3.963062130812503 -3.2823870498502483 -0.5721852594862461
C 1.96716757 0.16991961 4.76118967 6 -0.20159034467585327 -1.0298934561339956 -0.05701970551306904
C 4.69253184 8.42598720 8.83679156 6 2.562259020844421 0.7703093606658641 0.6428019993905558
C 7.84215881 8.98975133 29.70760439 6 4.843454550691962 -4.23877762980384 0.7278118782754492
C 1.20299789 2.12665422 8.53129665 6 -3.464360204887542 -2.566427255790561 1.0155424880683512
C 0.70237354 10.48368674 20.83942786 6 -2.0476920881516025 -1.2864510170360521 1.5342185135705046
C 10.47084877 5.70467644 27.51062567 6 -1.7571370556166643 -1.2072987810921259 3.180216694261738
C 5.10216129 9.85858941 27.51416156 6 -2.423380940919 0.8081166144679013 0.5494829074242569
C 3.71846080 7.17702328 21.06732087 6 0.7089686792098622 0.33835679317760353 1.3820236815543543
C 2.03161711 10.25307751 0.94183052 6 -10.214564960370911 7.400177353251967 -7.120147563950551
C 1.60996265 4.88524816 29.20046969 6 2.6494293877007804 -1.8948677780880647 2.3856102009579465
C 0.03864940 2.29268970 3.22439037 6 -3.472213252096372 4.410163828073553 -1.6540111688091623
C 9.50192646 7.75298178 31.13654331 6 -5.1822798524489535 -5.717439562897892 0.5545151318472037
C 5.18163928 6.91730563 20.95357776 6 -3.3311484559475097 -3.6114019568098827 0.42373901038464457
C 10.52703323 4.41268217 28.54138547 6 -1.4032479944756642 2.7745962631969547 -4.895134492670698
C 4.85060710 5.54897231 31.04410943 6 -4.205807174233568 1.7146102592975725 -2.5779841436017477
C 4.03697115 9.89146907 1.55842145 6 -0.17280509527358673 -2.4180725484311454 2.0234062696615855
C 4.29802116 1.78380027 21.04573002 6 -1.2656926412968774 -0.6881907608515692 -0.6758609110263112
C 1.48123293 10.95652371 9.55007196 6 -1.5975463708231614 -3.631418227302015 0.3089626369059686
C 3.53830016 5.95943730 2.62973449 6 0.00304299150849016 -0.19435803276375305 -1.4009234513594944
C 5.77760559 8.14838446 20.88151438 6 3.3835993028225144 1.8380512129579352 -2.3365942265326978
C 5.42754793 5.45785321 21.02060328 6 0.42088013091942617 2.674693365705611 -0.9054352577205832
C 10.02304414 3.11446652 2.49490119 6 4.535795612192961 2.042787919311825 0.2003936163945863
C 1.36837849 3.15372564 20.69952540 6 1.7994267691090853 -2.8611782943619657 0.3546054524155191
C 10.78008914 11.23297476 4.22564267 6 -2.233677651461541 -6.5755991678536505 3.5695822947352007
C 2.59194875 6.26156429 21.15418494 6 2.058329444305331 7.120910754655064 -1.4374635205955488
C 6.07475320 1.01283336 4.98154153 6 2.4344837199754124 2.6046742185227587 0.03369456103654864
C 2.21557155 0.80577735 24.70772628 6 -3.4727619882700336 -1.7382367715320741 -0.13928590352965176
C 5.58185196 10.38531876 20.81927640 6 4.712741685601812 8.410866586146138 1.9020430049811619
C 2.29923853 2.93185572 3.67657791 6 4.777822207221705 -2.4237789932136713 3.902469725956949
C 5.96421343 4.28213459 5.20974745 6 4.7188168687503325 -0.5239875036667109 -2.9668272361535224
C 8.51214951 0.37231240 4.29808154 6 -1.905814730470982 -3.6120648630215517 0.16239042212191623
C 6.04260747 2.69318466 4.96645922 6 -6.561157172325272 1.4050366584044334 -0.7106709441909509
C 7.09254335 10.02929940 20.92400768 6 -0.917743507808921 -0.6137117822741546 -0.0895206239450536
C 0.63642229 7.37721431 6.20818355 6 2.3871880103120193 0.2020835386688636 -0.01891314107085248
C 2.52192141 1.61933425 4.26841759 6 -0.19408957889060247 -6.0441849546425575 1.8239033852752304
C 7.96414775 6.03197126 20.87247126 6 4.489012639141696 5.197792577793232 0.4725852725912349
C 9.25314987 1.40983937 3.71259396 6 -2.600308500267634 0.7404775525818708 -2.943752031489935
C 9.68400658 6.57062400 26.55058374 6 15.637949304793898 -0.6884319579138443 6.602051645668539
C 1.05074884 6.69973762 20.95989856 6 7.507588730720318 3.718035229469658 1.4586513196758746
C 5.22294208 8.48042155 3.67823634 6 1.3417818288337449 1.2314493440866667 -1.9922923629075455
C 8.90117273 11.12846443 9.25067881 6 3.7868550769739913 -9.041417420467358 3.6773197253751566
C 0.49768867 4.10922284 29.06328956 6 -4.915739613133629 -2.3603976508981646 2.47555921968525
C 7.66345473 10.55600617 9.56909694 6 -4.304644484703517 2.591503521795966 -1.395438146740675
C 7.55541029 3.11672474 1.99458795 6 8.79842192295391 -0.26351061907254625 0.15822167289632535
C 8.11761624 7.62714259 30.42316904 6 -0.16257556272408905 4.194372684931595 0.9456776247206431
C 5.39132611 9.72853864 4.47587751 6 -0.2507806598348148 -5.721565626929093 -2.469370895057624
C 10.82300657 8.84174772 25.10743867 6 4.709934748361093 0.30833213029968015 4.298541530464671
C 5.68299755 3.81993382 0.92825018 6 4.241869477860126 2.6051303843953346 -0.15253579929181846
C 2.78765721 3.36641590 30.87501238 6 -4.680824988625573 1.2639230057077757 0.8657462554092397
C 3.57457844 6.68372685 28.97426641 6 2.4683459361128177 0.712031727616921 1.878533234181919
C 6.92177690 5.25139563 21.06381627 6 -1.644691396607564 -6.559048112298853 -1.0802090147306074
C 10.19665594 8.94993894 21.29327383 6 -5.417875382949445 -0.33587385199068603 -2.6224585161998077
C 2.76865431 9.10737061 27.03600242 6 2.1975628913310334 -0.6547605394525673 1.3494183643939224
C 0.51313488 10.71717519 4.88219232 6 6.950941396271424 1.0205016848093298 -1.2916766105323796
C 9.29697060 1.76637812 20.82647335 6 -7.396897793196255 0.5662129322278218 2.6437388855812194
C 8.60866575 3.61387143 7.51311587 6 -2.9479542088798074 -2.071306257679293 -0.809976248960837
C 10.25781977 8.28076120 10.37743967 6 -5.534220823031536 -5.137214058482841 2.556556176018048
C 4.20773760 11.02231689 9.09222073 6 -3.220191121668098 2.016829664048847 0.6035233920806954
C 9.56472750 3.37230985 28.57148749 6 -0.4666335165108299 -0.7257069324846347 -0.5999748638723834
C 6.36056457 2.14488933 27.30081891 6 -0.8376933399444566 -0.41877775652586396 -1.118978999663943
C 3.99555544 8.88945257 27.79853499 6 4.701507765285527 -0.5711433293195736 0.21292249236718008
C 1.62273287 1.00840725 30.77710256 6 1.0826610991504961 -0.9217734015828822 2.6087658258307775
C 9.52072613 7.62940080 21.20152836 6 -0.11255828620875567 -0.569526949006715 -1.253156565411977
C 10.07615742 9.77672901 29.87310297 6 0.7999313427340616 2.6179014859891043 -0.9557868158787285
C 4.54027149 4.60433714 0.68220834 6 -3.2990260471910786 -6.3867130684430045 1.667077466807508
C 10.30978137 3.65722922 20.71279282 6 -2.355957876402171 0.6848942295739924 0.539976451782134
C 2.47808940 1.62135536 8.84333140 6 1.722649989946926 1.2831889424816576 -2.6577776860204225
C 4.87703954 11.18616190 27.00527457 6 4.142276690877422 -0.2663936696719371 2.0652578170621974
C 10.52835429 5.00106087 20.84944101 6 -0.6201469610380108 3.1408465452096923 0.6907230728657326
C 10.03470783 1.86779469 8.49981781 6 -5.550635594531956 -1.0226678298547516 -0.4924734875001975
C 3.44648102 3.95232185 8.05223006 6 -5.955690832480662 -2.925010659755543 -2.51607981186802
C 9.07656852 7.61507241 10.74567322 6 9.586987175552913 4.548654655572762 -2.3132845104396917
C 10.78302482 7.81508278 26.23407436 6 -0.5336760142343037 1.2069274713288793 -1.7774449225572186
C 2.43553328 7.02418709 28.30207121 6 0.037635998745027356 -1.0362262932872064 -3.1277879614031043
C 0.73090613 9.75124502 25.24643369 6 -5.779819088843864 -3.0581385811451476 -0.9579473038501951
C 9.24592358 5.19473694 1.12826283 6 3.68835873377971 -0.20240342048706214 4.553974362208528
C 5.80954808 7.83512446 29.39725936 6 2.134893311774991 0.5879283820243398 -0.8261045668073402
C 6.54303987 2.59530220 1.21778664 6 -2.2286860551151824 3.2984382257791798 1.5922827206474988
C 2.89751952 4.93980671 20.93824513 6 -3.0019540654596577 1.9403290529515957 0.7597131468681741
C 0.76935229 10.07420407 0.14080990 6 3.8517597150218195 1.837460820148784 2.692633490056155
C 2.16994426 10.54740236 20.82059063 6 -3.3159082987119852 -6.835816341325323 -0.1116217833294316
C 6.72684752 10.02832837 4.42208813 6 0.5958338857371184 1.3304301385233 -0.09506969921573279
C 2.10264936 9.03899177 5.58292499 6 3.7714205221061854 2.9063721439112467 -0.2940423614886429
216
energy=-1885.1044421968295 config_type=Amorphous_Surfaces dft_virial = "-0.07121162495039193 -0.05825431247684914 -0.004909957590984103 -0.05825431247684914 -0.1330997279734212 -0.018722064006646107 -0.004909957590984103 -0.018722064006646107 -0.10177818047057982" Lattice="11.29109000 0.00000000 0.00000000 0.00000000 11.29109000 0.00000000 0.00000000 0.00000000 31.29109000" Properties=species:S:1:pos:R:3:Z:I:1:force:R:3
C 2.41863052 5.21722879 1.45810221 6 -5.770072464698367 -8.68012684947505 -1.3478832402342396
C 2.79737884 0.90363722 1.65060500 6 -3.1243340606136805 5.1580542046546425 -2.501462961326477
C 6.08468936 8.64195188 4.62726381 6 0.9686864873351183 -1.4823806878004722 0.4543093237595272
C 3.86569661 10.98076568 5.01768274 6 0.06824796875539887 3.181819189029434 -3.8421442321361945
C 4.35429595 5.68306529 28.21583297 6 2.9779979000973986 4.544801159650317 -0.3148516508934151
C 6.25271207 4.90503015 7.47763178 6 3.0893404296852194 -0.7422477024504229 -1.1330450569140216
C 5.56157316 10.49827482 31.12837633 6 0.17024141221294392 -3.5326174306730493 -1.3055642128131415
C 10.37027903 1.02847151 27.27722543 6 -1.6740480104793138 -2.24345821805077 0.18377879018792898
C 1.80899069 4.69455294 23.10800060 6 1.9263421947368913 5.114357422585708 1.815675428347001
C 4.71911107 2.14189719 29.20197167 6 -3.9826361209772223 -1.658841795687521 0.48718000911640685
C 6.57654053 7.60169247 3.73812748 6 -6.169606398466719 -0.04750810707644144 0.14317488473418152
C 5.50621295 3.85102948 23.69495886 6 -0.5802450470341686 -2.322176402138491 -0.13977446900760773
C 9.58875494 6.24608420 30.01247348 6 2.2652461812498057 -3.8610882299740763 -0.5860420049999792
C 1.73941500 0.94985166 0.07741416 6 0.5785186109189072 -1.9767246096620652 -1.4325022667367682
C 0.90684389 5.45308837 29.22306186 6 4.961758881200931 -1.0885845698611247 8.241864073129399
C 6.21878235 9.55568334 28.56388376 6 0.8949382998568359 -4.673579819727211 0.7457916021436806
C 0.32133313 7.11083491 26.44025135 6 0.16321944059608998 1.8369763689064322 -0.8057576146285496