100
energy=-989.2861391757708 config_type=Graphite_Layer_Sep dft_virial = "0.014986538952475406 4.574648274357553e-06 2.204973999195921e-05 4.574648274357553e-06 0.01499317960259572 -4.784937458119634e-06 2.204973999195921e-05 -4.784937458119634e-06 -0.004988253337339647" Lattice="12.32191500 0.00000000 0.00000000 6.16095750 10.67109141 0.00000000 0.00000000 0.00000000 20.00000000" Properties=species:S:1:pos:R:3:Z:I:1:force:R:3
C 0.00000000 0.00000000 0.00000000 6 -0.0049519968286719195 -0.0070764852386048 0.02484381169378784
C 2.46438300 0.00000000 0.00000000 6 -0.0015973519731908798 0.021675850278831038 0.00978828078098584
C 4.92876600 0.00000000 0.00000000 6 0.0391675229485568 -0.00236928542836136 0.02254806822684512
C 7.39314900 0.00000000 0.00000000 6 0.0339733004987088 0.017459787343796 0.02354577036077632
C 9.85753200 0.00000000 0.00000000 6 0.04086927365019512 0.0008043330605507199 0.014287197413784881
C 1.23219150 2.13421828 0.00000000 6 0.0258116856195912 0.0018282634464563997 0.024053364178400077
C 3.69657450 2.13421828 0.00000000 6 -0.0121009954697944 -0.011313119351659039 0.00961599716507504
C 6.16095750 2.13421828 0.00000000 6 0.01005982033083928 -0.020939916385194157 0.04708588364759736
C 8.62534050 2.13421828 0.00000000 6 0.03637189985574752 0.013484407191585598 0.02143979601106072
C 11.08972350 2.13421828 0.00000000 6 0.04582178475831752 0.03359119086700216 0.031198248583918717
C 2.46438300 4.26843656 0.00000000 6 0.01812115071711328 0.03276885802568464 0.026333679261828398
C 4.92876600 4.26843656 0.00000000 6 -0.00412297835449816 -0.03799188012475952 0.01625740198857376
C 7.39314900 4.26843656 0.00000000 6 0.02075271866521944 -0.01805995146250616 -0.00154129551308856
C 9.85753200 4.26843656 0.00000000 6 -0.0036668124819223998 -0.01428822597268584 0.03173927056582368
C 12.32191500 4.26843656 0.00000000 6 -0.018921369542060158 0.0020792318182906396 -0.0019388335283096001
C 3.69657450 6.40265485 0.00000000 6 -0.029493926485028 0.006836316735230639 0.013062698042192
C 6.16095750 6.40265485 0.00000000 6 -0.037028120434560004 -0.055575608816121204 0.01894656923513368
C 8.62534050 6.40265485 0.00000000 6 -0.01188448382114232 -0.01242704864139872 0.01114032145629776
C 11.08972350 6.40265485 0.00000000 6 0.00664037626459776 0.0280179444621504 0.029934663974089358
C 13.55410650 6.40265485 0.00000000 6 -0.029106674058816555 -0.02237321321368192 0.030323459238652237
C 4.92876600 8.53687313 0.00000000 6 0.017871725183630477 -0.006618262248227119 0.00972811008527968
C 7.39314900 8.53687313 0.00000000 6 0.0095733119706852 -0.00032193893600048 0.01426662623576568
C 9.85753200 8.53687313 0.00000000 6 -0.05213507929240999 -0.017538472099719437 0.05045904256329568
C 12.32191500 8.53687313 0.00000000 6 0.012853900585297118 0.02717555472226416 -0.0014487252120021599
C 14.78629800 8.53687313 0.00000000 6 0.01115574983981216 0.00865120891597456 0.060844401786288804
C 1.23219156 0.71140613 0.00000000 6 0.02618608105954064 -0.0018683772435938398 0.04136966755551216
C 3.69657456 0.71140613 0.00000000 6 -0.043208216590978156 0.00094421707108128 0.03432249624558472
C 6.16095756 0.71140613 0.00000000 6 -0.0145849652156128 0.013219038995137919 0.014833362190194639
C 8.62534056 0.71140613 0.00000000 6 -0.04721033927461352 -0.01296447066715032 0.0250685518136476
C 11.08972356 0.71140613 0.00000000 6 -0.01657214101226752 -0.02040095152109112 0.033518163185034
C 2.46438306 2.84562441 0.00000000 6 -0.02071671910368584 -0.02852605255922464 0.02039169449098248
C 4.92876606 2.84562441 0.00000000 6 0.00117409998544584 0.0353078556727044 0.01437513919981696
C 7.39314906 2.84562441 0.00000000 6 -0.005203993759407119 0.02418450543827248 0.03406947075594856
C 9.85753206 2.84562441 0.00000000 6 -0.0151403870221312 6.171353405759999e-05 0.03639349959266768
C 12.32191506 2.84562441 0.00000000 6 -0.051264918462197835 -0.03944471957236551 0.0183932045464172
C 3.69657456 4.97984269 0.00000000 6 -0.02672144596749032 -0.014097942576008238 0.02465352829711024
C 6.16095756 4.97984269 0.00000000 6 -0.010423415902328639 0.0420834874327784 0.017646985063770722
C 8.62534056 4.97984269 0.00000000 6 -0.014583422377261361 0.00726214012022808 0.023503085166386477
C 11.08972356 4.97984269 0.00000000 6 0.011418546639007439 -0.00760310739589632 0.01077261164920456
C 13.55410656 4.97984269 0.00000000 6 0.00329550271867584 0.015400098144623599 0.015376955569351999
C 4.92876606 7.11406098 0.00000000 6 -0.0013463836013566399 0.02773149080823304 0.02311737557852648
C 7.39314906 7.11406098 0.00000000 6 0.05364294664121736 0.028379997195288317 0.039689516590794
C 9.85753206 7.11406098 0.00000000 6 0.0044593171151120796 0.013519378194218239 0.030996651039330556
C 12.32191506 7.11406098 0.00000000 6 -0.0037228689420247202 -0.03085779558770096 0.02894056179631152
C 14.78629806 7.11406098 0.00000000 6 0.028908676470381763 -0.00036410985093983996 0.042924334334313204
C 6.16095756 9.24827926 0.00000000 6 -0.01253556160545 -0.00622638130696136 0.02266738105935648
C 8.62534056 9.24827926 0.00000000 6 0.014572108229350797 -0.015315242035294397 0.00721996920528872
C 11.08972356 9.24827926 0.00000000 6 0.03226229276696184 0.017865039550774238 0.01702367836978896
C 13.55410656 9.24827926 0.00000000 6 -0.008637323370811599 -0.00903434710658216 -0.00126667028653224
C 16.01848956 9.24827926 0.00000000 6 -0.012513961868529839 -0.00888212038924008 0.03507282996383504
C 0.00000000 0.00000000 4.30000000 6 -0.00995336448458992 0.031997438849964636 -0.00827115640206984
C 2.46438300 0.00000000 4.30000000 6 0.01889822696678856 0.00493091137120224 -0.03881421296607704
C 4.92876600 0.00000000 4.30000000 6 0.00883223528254352 -0.0102393038590568 -0.02895599017982592
C 7.39314900 0.00000000 4.30000000 6 -0.014459481029695681 0.00932440071665288 -0.025211521500881042
C 9.85753200 0.00000000 4.30000000 6 -0.01219202293252936 -0.00259505410712208 -0.03130779010687096
C 1.23219150 2.13421828 4.30000000 6 0.00809784422725808 -0.00480799858253752 -0.03267268776844488
C 3.69657450 2.13421828 4.30000000 6 0.009256001549739039 0.01217402315176256 -0.0319341824775556
C 6.16095750 2.13421828 4.30000000 6 0.01109917910025936 0.00378458247608232 -0.03285782837061768
C 8.62534050 2.13421828 4.30000000 6 -0.0058936425025008 0.0184729178612416 -0.0014374110640915998
C 11.08972350 2.13421828 4.30000000 6 0.022454469366857757 0.02105048646704736 -0.029444555657781916
C 2.46438300 4.26843656 4.30000000 6 0.0349118604958348 0.009099146317342639 -0.03974403021254488
C 4.92876600 4.26843656 4.30000000 6 0.00803870209045288 0.00633643710936408 -0.02286846432449416
C 7.39314900 4.26843656 4.30000000 6 -0.02035466637054792 0.0410806425043424 -0.0163875146895452
C 9.85753200 4.26843656 4.30000000 6 0.029886835985194718 -0.01039307341475032 -0.050634926135359845
C 12.32191500 4.26843656 4.30000000 6 0.029887350264645198 0.0027591092518252 -0.02522232136934112
C 3.69657450 6.40265485 4.30000000 6 -0.01398634393525408 0.02426576159144832 -0.05345832031849503
C 6.16095750 6.40265485 4.30000000 6 0.010880096054354879 0.00503531009964968 -0.00361332741907248
C 8.62534050 6.40265485 4.30000000 6 -0.012843100716837039 -0.020884888483992798 -0.02638716432467832
C 11.08972350 6.40265485 4.30000000 6 -0.032132694345440874 -0.01556929608383152 -0.0389206688123264
C 13.55410650 6.40265485 4.30000000 6 -0.02359308407022048 -0.03802479400959024 0.00189923401062264
C 4.92876600 8.53687313 4.30000000 6 -0.028093543541370957 -0.00697260078960784 -0.031101049767778
C 7.39314900 8.53687313 4.30000000 6 -0.03809679313265744 0.0093187436426976 -0.04410100571701144
C 9.85753200 8.53687313 4.30000000 6 -0.008955148071208239 0.0037490971939992 -0.01979255893117328
C 12.32191500 8.53687313 4.30000000 6 0.0036179559341268 -0.01987895787885392 -0.02703155647612976
C 14.78629800 8.53687313 4.30000000 6 -0.037111947984988236 0.00076061930725992 -0.03019694649383416
C 1.23219156 0.71140613 4.30000000 6 -0.0061929531426801595 0.00220008748915344 -0.02057477797535336
C 3.69657456 0.71140613 4.30000000 6 -0.015998205145531838 -0.009718338775720559 -0.02479495514599224
C 6.16095756 0.71140613 4.30000000 6 0.00506359546942608 -0.01955444754560104 -0.0249194107730084
C 8.62534056 0.71140613 4.30000000 6 0.0073099681091227196 -0.01447336657485864 -0.02958495394776296
C 11.08972356 0.71140613 4.30000000 6 0.0277299479698816 -0.00285219383236208 -0.02027701017352544
C 2.46438306 2.84562441 4.30000000 6 -0.00594609900644976 -0.01220796559549424 -0.03255594633318592
C 4.92876606 2.84562441 4.30000000 6 -0.010012506621395119 -0.00112935767325408 -0.0201957540203496
C 7.39314906 2.84562441 4.30000000 6 -0.0028516795529116 -0.0270870986567816 -0.04164429278206848
C 9.85753206 2.84562441 4.30000000 6 -0.0013036984069668 0.00824595670899632 -0.02630179393589864
C 12.32191506 2.84562441 4.30000000 6 -0.013467950249170238 0.00756093648095696 -0.034340496026351516
C 3.69657456 4.97984269 4.30000000 6 -0.02294406340371472 -0.03784891043752608 -0.025942312600013118
C 6.16095756 4.97984269 4.30000000 6 0.00709037078376776 -0.012504704838421199 -0.01781566872352816
C 8.62534056 4.97984269 4.30000000 6 -0.02015769734101408 0.006429521689900959 -0.035690993863311996
C 11.08972356 4.97984269 4.30000000 6 -0.02433981783231744 -0.007637049839628 0.00130318412751632
C 13.55410656 4.97984269 4.30000000 6 -0.027853889317447277 0.023265488060264718 -0.026412878297202316
C 4.92876606 7.11406098 4.30000000 6 -0.00560101749517768 0.006973115069058319 -0.03784016768686792
C 7.39314906 7.11406098 4.30000000 6 -0.0129392709740768 -0.018921883821510638 -0.03266240217943528
C 9.85753206 7.11406098 4.30000000 6 0.014991245981491999 -0.0024803697896650396 -0.03342405004559616
C 12.32191506 7.11406098 4.30000000 6 0.0113707186501128 0.02414696303838744 -0.03189355440096768
C 14.78629806 7.11406098 4.30000000 6 0.034723119937508644 0.014990731702041519 -0.009256515829189519
C 6.16095756 9.24827926 4.30000000 6 0.04010042587172752 -0.01891828386535728 -0.028201542225971758
C 8.62534056 9.24827926 4.30000000 6 0.027128241012819996 0.02082214639103424 -0.02438301730615776
C 11.08972356 9.24827926 4.30000000 6 0.006145639433236 0.012958299313744561 -0.025226949884395437
C 13.55410656 9.24827926 4.30000000 6 0.02123048427471536 -0.01807743696382248 -0.024321818051550637
C 16.01848956 9.24827926 4.30000000 6 0.029971177815073437 0.00426749088008304 -0.041131556169939916
100
energy=-989.1779838341304 config_type=Graphite_Layer_Sep dft_virial = "0.015061916795894116 -1.1143711691151131e-05 1.9906402168842125e-05 -1.1143711691151131e-05 0.015085761400550965 -6.10108242696503e-06 1.9906402168842125e-05 -6.10108242696503e-06 -0.004875077855218751" Lattice="12.32191500 0.00000000 0.00000000 6.16095750 10.67109141 0.00000000 0.00000000 0.00000000 20.00000000" Properties=species:S:1:pos:R:3:Z:I:1:force:R:3
C 0.00000000 0.00000000 0.00000000 6 -0.00580672927536968 -0.00520759371556048 0.02450130157976816
C 2.46438300 0.00000000 0.00000000 6 -0.00128107011114568 0.019439763228144 0.00924777307853136
C 4.92876600 0.00000000 0.00000000 6 0.0367864090928344 -0.00369046933664448 0.02133642584151424
C 7.39314900 0.00000000 0.00000000 6 0.0338627304168556 0.01971850269030416 0.02104071515748824
C 9.85753200 0.00000000 0.00000000 6 0.04151315152219608 0.0018025494739324 0.01283538652507984
C 1.23219150 2.13421828 0.00000000 6 0.02737663798740184 0.00030136775798128 0.0236619975165848
C 3.69657450 2.13421828 0.00000000 6 -0.0118489985390592 -0.01099683748961384 0.00943085656290224
C 6.16095750 2.13421828 0.00000000 6 0.01109197918795264 -0.01975398797238728 0.04392923638055112
C 8.62534050 2.13421828 0.00000000 6 0.03377941714587784 0.014037257600851599 0.02108957170528384
C 11.08972350 2.13421828 0.00000000 6 0.046345321238906154 0.03536082645610384 0.030236031732070637
C 2.46438300 4.26843656 0.00000000 6 0.0192366228452044 0.03359993361766032 0.02505209487123224
C 4.92876600 4.26843656 0.00000000 6 -0.00369458357224832 -0.03856787310929712 0.0160995181972764
C 7.39314900 4.26843656 0.00000000 6 0.01911525289489112 -0.013582120287176801 -0.00241145634330072
C 9.85753200 4.26843656 0.00000000 6 -0.004046864995827119 -0.01518821501102584 0.030131633003623197
C 12.32191500 4.26843656 0.00000000 6 -0.01701904985473464 0.0022036874453068 -0.0026382535809624
C 3.69657450 6.40265485 0.00000000 6 -0.028928219089499996 0.008599266691476079 0.011145978530253038
C 6.16095750 6.40265485 0.00000000 6 -0.03422581170889448 -0.05282369947660272 0.01719184775009592
C 8.62534050 6.40265485 0.00000000 6 -0.0114247179924132 -0.011969854209921998 0.0124609910851304
C 11.08972350 6.40265485 0.00000000 6 0.0059630702283156 0.028179942489051597 0.027845660846239597
C 13.55410650 6.40265485 0.00000000 6 -0.027952630971939438 -0.02119397043373128 0.03003083423132912
C 4.92876600 8.53687313 0.00000000 6 0.019017025519849438 -0.00751722272766616 0.00878235017584696
C 7.39314900 8.53687313 0.00000000 6 0.00813281522989072 -0.00104038732832104 0.01305035533538048
C 9.85753200 8.53687313 0.00000000 6 -0.05029035890353824 -0.01718259071998728 0.0471491400200064
C 12.32191500 8.53687313 0.00000000 6 0.015718437124470717 0.02638870716302976 -0.0027344238382021597
C 14.78629800 8.53687313 0.00000000 6 0.01229179314592248 0.010865696229741439 0.0604612635956812
C 1.23219156 0.71140613 0.00000000 6 0.025392547867450002 -0.00096375969019952 0.040717561212303514
C 3.69657456 0.71140613 0.00000000 6 -0.042107144287500474 0.0009375314382250399 0.03305119744399816
C 6.16095756 0.71140613 0.00000000 6 -0.01223882236252304 0.01258030391764176 0.01637671482108512
C 8.62534056 0.71140613 0.00000000 6 -0.046767030388299755 -0.013387722654895358 0.02262263874716472
C 11.08972356 0.71140613 0.00000000 6 -0.01537284133374816 -0.023066976192379438 0.03033683050436472
C 2.46438306 2.84562441 0.00000000 6 -0.0206791767038008 -0.02927432915967304 0.017980752427132242
C 4.92876606 2.84562441 0.00000000 6 -0.00047005141773872 0.035730079101548476 0.0127772729471756
C 7.39314906 2.84562441 0.00000000 6 -0.00322916066956392 0.0197714734737036 0.032299835166846876
C 9.85753206 2.84562441 0.00000000 6 -0.014211598334564318 0.00123787063730536 0.03468763465542552
C 12.32191506 2.84562441 0.00000000 6 -0.05382757296393968 -0.038813698686626555 0.017569843146198718
C 3.69657456 4.97984269 0.00000000 6 -0.02516163639418448 -0.01599614802772992 0.026793445090557522
C 6.16095756 4.97984269 0.00000000 6 -0.008608009442134239 0.0399389421242768 0.01710904875856864
C 8.62534056 4.97984269 0.00000000 6 -0.0151018160633452 0.007049228427729359 0.0221628729184356
C 11.08972356 4.97984269 0.00000000 6 0.01195545438530856 -0.00773579149412016 0.01047484384737664
C 13.55410656 4.97984269 0.00000000 6 0.00132529814388696 0.01487244742843112 0.01414834196215528
C 4.92876606 7.11406098 0.00000000 6 -0.00138546883959312 0.027785490150533436 0.02118368484472168
C 7.39314906 7.11406098 0.00000000 6 0.05040041470594096 0.02865153674514176 0.03686715096655976
C 9.85753206 7.11406098 0.00000000 6 0.00441200340566792 0.01215345197374336 0.02920644427220968
C 12.32191506 7.11406098 0.00000000 6 -0.0030712768782665597 -0.03068088345673584 0.028142400089166558
C 14.78629806 7.11406098 0.00000000 6 0.027797832857344957 -0.00275602357512232 0.04134858209804248
C 6.16095756 9.24827926 0.00000000 6 -0.012566932651929279 -0.00692580135961416 0.02169282150069688
C 8.62534056 9.24827926 0.00000000 6 0.013840288571317761 -0.013789889185170719 0.00627369501640552
C 11.08972356 9.24827926 0.00000000 6 0.03011517606120784 0.01871925771802152 0.0158552354582984
C 13.55410656 9.24827926 0.00000000 6 -0.010222332637190959 -0.01191276919091872 -0.00208848884839928
C 16.01848956 9.24827926 0.00000000 6 -0.01423988370434072 -0.009154174218544 0.034673234830812076
C 0.00000000 0.00000000 4.40000000 6 -0.010799354180629519 0.030903566458793677 -0.0032373891407716
C 2.46438300 0.00000000 4.40000000 6 0.01609540396167256 0.0035593280767720796 -0.031848297809325445
C 4.92876600 0.00000000 4.40000000 6 0.00653289185944744 -0.01015856198533144 -0.02253418268168216
C 7.39314900 0.00000000 4.40000000 6 -0.01513061571257208 0.006839916691384 -0.0190746248183032
C 9.85753200 0.00000000 4.40000000 6 -0.01189374085125096 -0.00229008639298744 -0.02514775084902152
C 1.23219150 2.13421828 4.40000000 6 0.009394857001368639 -0.00431686170732912 -0.025636830606428
C 3.69657450 2.13421828 4.40000000 6 0.00846915399050464 0.011522945367454879 -0.024855640121148877
C 6.16095750 2.13421828 4.40000000 6 0.0084187546043576 0.00132992665894128 -0.02545271856315616
C 8.62534050 2.13421828 4.40000000 6 -0.008784407293648879 0.01598329104146792 0.00394298054683016
C 11.08972350 2.13421828 4.40000000 6 0.01972158836700704 0.02108648602858096 -0.0224508694107044
C 2.46438300 4.26843656 4.40000000 6 0.034422266458977835 0.010142105042916079 -0.03355364846711712
C 4.92876600 4.26843656 4.40000000 6 0.008675894329597601 0.00839664058798696 -0.01653768428908536
C 7.39314900 4.26843656 4.40000000 6 -0.01795452417515776 0.037658112761398 -0.01106626521542864
C 9.85753200 4.26843656 4.40000000 6 0.031556187081452795 -0.01079832562172856 -0.0424897681986576
C 12.32191500 4.26843656 4.40000000 6 0.0300364913052844 0.00029879636072888 -0.0209851729768364
C 3.69657450 6.40265485 4.40000000 6 -0.01041055891606664 0.02547174690282392 -0.04770147614982192
C 6.16095750 6.40265485 4.40000000 6 0.012037739097385359 0.0039522375769388 0.0034991573810659203
C 8.62534050 6.40265485 4.40000000 6 -0.01158208750426008 -0.02111734279560976 -0.01984192975841936
C 11.08972350 6.40265485 4.40000000 6 -0.0309801940969152 -0.01547415438549272 -0.03206069522237368
C 13.55410650 6.40265485 4.40000000 6 -0.019551361868898158 -0.0366706962164764 0.01055455716220104
C 4.92876600 8.53687313 4.40000000 6 -0.027442980036513756 -0.0042520624965686395 -0.023100404356660637
C 7.39314900 8.53687313 4.40000000 6 -0.035559338323989116 0.008817321178479599 -0.03856941594764856
C 9.85753200 8.53687313 4.40000000 6 -0.00809424427110472 0.0020972315990574397 -0.01387988808900472
C 12.32191500 8.53687313 4.40000000 6 0.00233020019012488 -0.021941732754729198 -0.02090751677981392
C 14.78629800 8.53687313 4.40000000 6 -0.037197832653218396 0.00153409560078184 -0.02435473193638136
C 1.23219156 0.71140613 4.40000000 6 -0.0047159425609016 0.00218723050289144 -0.01554512494965896
C 3.69657456 0.71140613 4.40000000 6 -0.0132401244526076 -0.008327727141622639 -0.017415045031604237
C 6.16095756 0.71140613 4.40000000 6 0.00548581889827016 -0.0164415140318456 -0.018308862716538477
C 8.62534056 0.71140613 4.40000000 6 0.008742750658160001 -0.011114093204323279 -0.02303920510205352
C 11.08972356 0.71140613 4.40000000 6 0.02692201495317752 -0.00303476303728248 -0.01228716463086816
C 2.46438306 2.84562441 4.40000000 6 -0.005975412935127119 -0.012261964937794639 -0.024950781819487677
C 4.92876606 2.84562441 4.40000000 6 -0.00799601689606304 -0.00251122655669384 -0.01490330419545992
C 7.39314906 2.84562441 4.40000000 6 -0.00033325308391104 -0.023362172596954958 -0.035393226061484075
C 9.85753206 2.84562441 4.40000000 6 0.0027009956739209597 0.008499496478082959 -0.01872028627692248
C 12.32191506 2.84562441 4.40000000 6 -0.012811215390907278 0.009475598875094 -0.0288227918021516
C 3.69657456 4.97984269 4.40000000 6 -0.023062861956775597 -0.039272435956454715 -0.018817999372513678
C 6.16095756 4.97984269 4.40000000 6 0.0048316554372596 -0.0115352880742664 -0.01183511299389624
C 8.62534056 4.97984269 4.40000000 6 -0.02159562268455616 0.0068527736776460004 -0.029196672962650556
C 11.08972356 4.97984269 4.40000000 6 -0.027012013857011515 -0.007104770608381199 0.009404114031477279
C 13.55410656 4.97984269 4.40000000 6 -0.026372764500064882 0.02244932657235296 -0.02123151283361632
C 4.92876606 7.11406098 4.40000000 6 -0.008790064367604159 0.004258233849974399 -0.03174492763977896
C 7.39314906 7.11406098 4.40000000 6 -0.01419102715654512 -0.01798743805998848 -0.02721258284269872
C 9.85753206 7.11406098 4.40000000 6 0.01491307550501904 -0.0018570630956832798 -0.025800885751131115
C 12.32191506 7.11406098 4.40000000 6 0.00901583304636488 0.02503203797266352 -0.0259685408519876
C 14.78629806 7.11406098 4.40000000 6 0.03155824419925472 0.013258638512824881 -0.002365685472208
C 6.16095756 9.24827926 4.40000000 6 0.03762777027381968 -0.018388576031362878 -0.0210314581273796
C 8.62534056 9.24827926 4.40000000 6 0.024500273020867196 0.02074449019401176 -0.017361045689303838
C 11.08972356 9.24827926 4.40000000 6 0.00519319389094704 0.013618119848710399 -0.019175423590597276
C 13.55410656 9.24827926 4.40000000 6 0.023778738951843757 -0.0169686504685876 -0.01695476492342464
C 16.01848956 9.24827926 4.40000000 6 0.029767523152683356 0.0038581244375009596 -0.035372654883464874
100
energy=-989.0758907708329 config_type=Graphite_Layer_Sep dft_virial = "0.01511894942477669 -2.4429360283446593e-05 1.808595305902833e-05 -2.4429360283446593e-05 0.015157612467967421 -7.045633400984038e-06 1.808595305902833e-05 -7.045633400984038e-06 -0.00467905883677886" Lattice="12.32191500 0.00000000 0.00000000 6.16095750 10.67109141 0.00000000 0.00000000 0.00000000 20.00000000" Properties=species:S:1:pos:R:3:Z:I:1:force:R:3
C 0.00000000 0.00000000 0.00000000 6 -0.006549863081313279 -0.0035665279890788 0.02389702322545416
C 2.46438300 0.00000000 0.00000000 6 -0.0010671298597459999 0.0176989272882692 0.0085550386587348
C 4.92876600 0.00000000 0.00000000 6 0.034609464178952554 -0.00479668443462696 0.019997242152464317
C 7.39314900 0.00000000 0.00000000 6 0.033776331469174956 0.02140533928787856 0.01879022828218776
C 9.85753200 0.00000000 0.00000000 6 0.04204800215069528 0.0026022540194287997 0.011360947340553679
C 1.23219150 2.13421828 0.00000000 6 0.028412911080119042 -0.0009282744081164 0.022912178077784957
C 3.69657450 2.13421828 0.00000000 6 -0.011574373312502878 -0.01075306903008632 0.00908268937492728
C 6.16095750 2.13421828 0.00000000 6 0.01183048447884192 -0.01896816897205384 0.04108527101939672
C 8.62534050 2.13421828 0.00000000 6 0.03162407196891616 0.014527365917159038 0.02059843483007544
C 11.08972350 2.13421828 0.00000000 6 0.04690537156047888 0.036830637125575674 0.02922804400912984
C 2.46438300 4.26843656 0.00000000 6 0.02000392778532056 0.03429575371415976 0.02371033978492992
C 4.92876600 4.26843656 0.00000000 6 -0.0034760148057943197 -0.038903697590460556 0.0156315238973396
C 7.39314900 4.26843656 0.00000000 6 0.01786966806582856 -0.01002896356381048 -0.0034019585649251996
C 9.85753200 4.26843656 0.00000000 6 -0.00421914861173792 -0.01585934969390224 0.028556395046802956
C 12.32191500 4.26843656 0.00000000 6 -0.01531164207914104 0.00231785748331336 -0.0033942443731680002
C 3.69657450 6.40265485 0.00000000 6 -0.0282545130093712 0.009945650292832718 0.0094215995327936
C 6.16095750 6.40265485 0.00000000 6 -0.031851897765478795 -0.05069663966941743 0.015583695908444958
C 8.62534050 6.40265485 0.00000000 6 -0.01115523556036168 -0.01162682981645184 0.0130961262064732
C 11.08972350 6.40265485 0.00000000 6 0.00562518862935024 0.028314683705077358 0.02607859665439032
C 13.55410650 6.40265485 0.00000000 6 -0.02683973024110072 -0.02027855301187688 0.029542783032823598
C 4.92876600 8.53687313 0.00000000 6 0.02007592690838776 -0.0082258998104276 0.00781859048564744
C 7.39314900 8.53687313 0.00000000 6 0.00690060166654064 -0.0016672939784561599 0.0119338546483884
C 9.85753200 8.53687313 0.00000000 6 -0.048744434875395364 -0.01707202063813408 0.04421620431391896
C 12.32191500 8.53687313 0.00000000 6 0.01800029504625048 0.02580242858948256 -0.00394298054683016
C 14.78629800 8.53687313 0.00000000 6 0.01325606711557248 0.01283590080453032 0.05990738462751424
C 1.23219156 0.71140613 0.00000000 6 0.024768726894017757 -0.00039445233851815995 0.04006442631019392
C 3.69657456 0.71140613 0.00000000 6 -0.041284811446182956 0.0009452456299822399 0.03184366929427112
C 6.16095756 0.71140613 0.00000000 6 -0.01039255913529984 0.01232007851569888 0.01721910456097136
C 8.62534056 0.71140613 0.00000000 6 -0.04625275093781976 -0.01364846233628872 0.02036340912120608
C 11.08972356 0.71140613 0.00000000 6 -0.014992274540392958 -0.024780555321378798 0.02797577354721104
C 2.46438306 2.84562441 0.00000000 6 -0.020682262380503677 -0.0299490637987028 0.015691694593045757
C 4.92876606 2.84562441 0.00000000 6 -0.00210288867301272 0.035858134684718 0.01155277357558272
C 7.39314906 2.84562441 0.00000000 6 -0.00175523576448824 0.016235802251653598 0.03105065038163096
C 9.85753206 2.84562441 0.00000000 6 -0.013420636539726081 0.00210031727576032 0.03309079696168512
C 12.32191506 2.84562441 0.00000000 6 -0.055925833121898076 -0.038303533471750396 0.01667911113796736
C 3.69657456 4.97984269 0.00000000 6 -0.02485306872389648 -0.0165623697027084 0.026007111810773597
C 6.16095756 4.97984269 0.00000000 6 -0.007246197457263201 0.038390446698881524 0.01633917242120008
C 8.62534056 4.97984269 0.00000000 6 -0.0157266655956784 0.0068990588281892 0.0208051751691684
C 11.08972356 4.97984269 0.00000000 6 0.01222596537626104 -0.00797287432079144 0.0099873069283216
C 13.55410656 4.97984269 0.00000000 6 -0.00037079548379607996 0.01426714051521616 0.012934128179572
C 4.92876606 7.11406098 0.00000000 6 -0.0014862676118872 0.027882174687223676 0.01937650685573496
C 7.39314906 7.11406098 0.00000000 6 0.04776987531673576 0.0288562199664328 0.0344130094288692
C 9.85753206 7.11406098 0.00000000 6 0.00418829184470912 0.01115883551651504 0.02751343632122952
C 12.32191506 7.11406098 0.00000000 6 -0.0028557937885154397 -0.02997066353562296 0.02796805935545384
C 14.78629806 7.11406098 0.00000000 6 0.026837158843848317 -0.0046948571034319195 0.03981860073286448
C 6.16095756 9.24827926 0.00000000 6 -0.01268418836663872 -0.007625221412266959 0.02069769076401808
C 8.62534056 9.24827926 0.00000000 6 0.01308892629416648 -0.01247847658644672 0.0050965093542568
C 11.08972356 9.24827926 0.00000000 6 0.02864433683283504 0.01937702113518544 0.014792734113606718
C 13.55410656 9.24827926 0.00000000 6 -0.01142266087461128 -0.014221369644123438 -0.0031062478808992
C 16.01848956 9.24827926 0.00000000 6 -0.01589174929928248 -0.00957845476519 0.03395067220288768
C 0.00000000 0.00000000 4.50000000 6 -0.011385632754176719 0.03004009126143776 0.0025662544578952
C 2.46438300 0.00000000 4.50000000 6 0.01375337534418664 0.0024273990062656 -0.02460364319041368
C 4.92876600 0.00000000 4.50000000 6 0.0047390851361732 -0.010118448188194 -0.0157138086094164
C 7.39314900 0.00000000 4.50000000 6 -0.01587529235686712 0.00479514159627552 -0.012446076981066478
C 9.85753200 0.00000000 4.50000000 6 -0.01177751369544248 -0.0019177480708399198 -0.01865497278671152
C 1.23219150 2.13421828 4.50000000 6 0.01045427266935744 -0.0038159535225616 -0.01825280625643616
C 3.69657450 2.13421828 4.50000000 6 0.007742991406426879 0.01096803784038696 -0.017462358741048397
C 6.16095750 2.13421828 4.50000000 6 0.00621712427685272 -0.0005111937737771199 -0.0178429255344036
C 8.62534050 2.13421828 4.50000000 6 -0.011270434157269199 0.013961658521631039 0.009950793087337519
C 11.08972350 2.13421828 4.50000000 6 0.01738418826457544 0.0210006013603508 -0.015141929860482638
C 2.46438300 4.26843656 4.50000000 6 0.034150212629673916 0.01101278015257872 -0.02687521552318384
C 4.92876600 4.26843656 4.50000000 6 0.00922925901831408 0.01006804880204696 -0.00981450903296032
C 7.39314900 4.26843656 4.50000000 6 -0.01612677500815184 0.03497305975044192 -0.00510473782546448
C 9.85753200 4.26843656 4.50000000 6 0.032861942606221516 -0.011235463154636558 -0.03421604039933536
C 12.32191500 4.26843656 4.50000000 6 0.03014140431318232 -0.0016379800497788 -0.01589792065268824
C 3.69657450 6.40265485 4.50000000 6 -0.007561965039857919 0.026598533178825597 -0.04133212515562712
C 6.16095750 6.40265485 4.50000000 6 0.01306732655724632 0.00319418966693128 0.01082506815315352
C 8.62534050 6.40265485 4.50000000 6 -0.01059827091549184 -0.021171342137910158 -0.012844643555188481
C 11.08972350 6.40265485 4.50000000 6 -0.02998866331638976 -0.015394955350118799 -0.02492918208256752
C 13.55410650 6.40265485 4.50000000 6 -0.01643945691404368 -0.035626708932001996 0.01916668083993912
C 4.92876600 8.53687313 4.50000000 6 -0.027080413023925356 -0.0020185468431339997 -0.01506427366346016
C 7.39314900 8.53687313 4.50000000 6 -0.0333973075141712 0.00854166739302232 -0.032469547385505275
C 9.85753200 8.53687313 4.50000000 6 -0.00733002500769144 0.00070867708276144 -0.0074076812047139205
C 12.32191500 8.53687313 4.50000000 6 0.00133249805619368 -0.023541141845721997 -0.01438748190662848
C 14.78629800 8.53687313 4.50000000 6 -0.037112976543889196 0.00218723050289144 -0.01789898199450592
C 1.23219156 0.71140613 4.50000000 6 -0.0036287558025868798 0.0021183170565271196 -0.0097533097783532
C 3.69657456 0.71140613 4.50000000 6 -0.01092689548434856 -0.00706979960574856 -0.00972296729077488
C 6.16095756 0.71140613 4.50000000 6 0.0059553560365584 -0.014092799781503438 -0.01131466219001048
C 8.62534056 0.71140613 4.50000000 6 0.010123076703248319 -0.008360126747002879 -0.01603986178102072
C 11.08972356 0.71140613 4.50000000 6 0.02627248000722128 -0.0031581901053976797 -0.004186749006357679
C 2.46438306 2.84562441 4.50000000 6 -0.00602941227742752 -0.012333449781411359 -0.01723453294448576
C 4.92876606 2.84562441 4.50000000 6 -0.00625466667673776 -0.00368841221884256 -0.00889549165495256
C 7.39314906 2.84562441 4.50000000 6 0.00170329353998976 -0.02056706378359616 -0.028590851769985118
C 9.85753206 2.84562441 4.50000000 6 0.00606129760335728 0.00884869222495888 -0.011005580240272
C 12.32191506 2.84562441 4.50000000 6 -0.01218739441747504 0.01095826653082784 -0.022739380182423677