72
energy=-696.4445410320769 config_type=Graphite dft_virial = "-0.03203278656410738 0.005221597683475353 0.0035940324007316714 0.005221597683475353 -0.040495270351061076 0.004511517769955395 0.0035940324007316714 0.004511517769955395 0.01580094042837828" Lattice="3.73972251 -6.47739002 0.00000000 3.73972251 6.47739002 0.00000000 0.00000000 0.00000000 13.55673629" Properties=species:S:1:pos:R:3:Z:I:1:force:R:3
C 0.46261418 -0.61461719 1.38691147 6 -0.9538186684217416 0.9749360112173513 0.6305328345404545
C 4.10570481 -4.47453769 5.35747523 6 0.32716298665845583 -0.7208397917652919 -0.7555089123605002
C 4.18076874 -4.22479894 1.41102863 6 0.38955228391398655 0.4277138762574044 -0.2784452943144854
C 2.87770993 -3.76420314 5.34854161 6 -0.38385406760266816 0.7796846750481146 -0.11352513157565808
C 2.93662664 -4.93654375 1.39603908 6 -0.10422335915482632 0.2516749917991995 0.597811290224214
C 5.38570363 2.03151212 12.19660954 6 0.23467188460742977 0.0038210963170664 0.5308737055086382
C 5.43102918 2.32468974 8.17849743 6 -0.7532049404223499 -0.6834419044058369 0.045219563521805436
C 2.91503535 -4.91016199 8.18055195 6 0.2023483925858608 0.08659848810742624 0.4013071693136079
C 4.14705234 2.72901678 12.31226586 6 0.24038861497896544 0.11915494872006263 -1.7664907702619947
C 5.36495401 2.00238019 5.37908195 6 -0.6811667321169133 -0.38311556231177885 0.3198298759740615
C 5.43013703 2.29211430 1.37008851 6 0.7181567958721379 0.0413789245856208 0.11520168258422286
C 4.10864266 2.71860328 5.42937717 6 -0.31924771163611815 -1.1947668194428291 -1.4257513203903174
C 4.18933592 1.56919016 1.32334434 6 0.2375045358206736 -0.04904837403062903 1.2640500327320445
C 4.13709241 -0.14974910 12.19847007 6 0.9586600951685602 0.43991464194059204 -0.02441181695538464
C 4.17485942 0.16260361 8.26849870 6 -0.5662705315262756 -0.607334202808752 -0.7939621011523403
C 4.16286774 1.61895245 8.21151486 6 0.743852768615371 -0.7528238593495441 0.2671393748751331
C 2.90234419 0.56906657 12.26274039 6 -0.6236533183313835 -0.06782677388545576 -1.270164301118801
C 2.89346224 -3.72030664 12.19961141 6 -0.09235276087884695 -0.2717982324170314 -0.6570722255824748
C 4.16484523 -4.44198997 12.18114944 6 -1.0376847898087675 -0.9065908436458118 0.197367596107962
C 5.38167524 0.58047008 12.18239354 6 -0.3437191850077585 -0.09101049151309416 -0.7863636222714983
C 5.41110136 -0.60012591 8.20406083 6 -0.6015429019168969 1.6746255463022026 0.29874750418108437
C 6.60608462 -0.16863036 5.37996111 6 -0.6513518952547859 0.23081427444937927 -0.4865880734689044
C 6.68115645 0.08314766 1.40209284 6 0.5215981613397809 0.6822503189190746 0.12260113531772912
C 5.34976127 0.54902170 5.38280694 6 0.6606906957960521 0.8189288256347929 -0.5987719642377106
C 5.44358736 -0.62606604 1.44926947 6 -0.33929586745418 0.1950739097588212 0.059441961724829843
C 4.16252645 -4.20670500 8.15585050 6 0.5537082273894006 0.9170996299369202 0.35588497968831334
C 5.39301210 -2.29153360 12.18524859 6 0.2613089887450413 0.1706790640253024 -0.18523214391498544
C 4.16671397 -1.57496035 12.12300487 6 -1.0031231536187097 -0.42496453831513836 0.39989752933984224
C 4.16608768 -2.75069091 8.22236445 6 -0.07868167024673711 -0.00883429240034544 -0.5397383403965619
C 5.35288229 -2.32358431 5.37992627 6 -0.1219639430785844 -0.08810995541238696 -0.33684841154934564
C 5.45958271 -2.04928861 1.37602446 6 -1.4684514288842214 0.2712361249776568 0.2652545406891239
C 4.10597893 -1.60934505 5.34953288 6 0.7616118665993463 1.0374651924834126 -0.22173415647170439
C 4.18061414 -2.77708400 1.38916378 6 0.467545333976531 0.25177887624819645 0.5196773275922381
C 5.40406960 -2.01003821 8.13514272 6 0.5540527946212223 -1.0972702355002812 0.5538954251093753
C 2.90203697 -0.57530423 8.18016640 6 1.9929470406480063 0.20470430674850967 0.8575542980425438
C 4.11709346 -0.15142253 5.35157276 6 -1.2126544872894245 -0.6389222752161346 0.33625081882788793
C 4.20025453 0.12908117 1.42557257 6 -0.7591464109137452 -1.0857627185163408 -0.48362633811359
C 2.92370145 2.33686484 8.14945307 6 0.11938431735497672 -0.5026536492224492 0.3277266369361819
C 1.65104643 2.73858078 12.20686752 6 0.3987640574309843 -0.06871082026083088 -0.9024169516257161
C 1.69222500 1.58981741 8.15738607 6 -0.5516428811162729 0.24917765078766863 0.3349059780648827
C 2.84802491 1.95101805 5.30006055 6 0.14653724378141975 2.4752105382178247 0.9063542750985909
C 2.96387003 2.29829613 1.31147487 6 -0.8164289132260095 -1.2315845995821428 0.20855163131755056
C 1.61172261 2.72404156 5.31014893 6 0.36148342578623865 -0.8347182333234299 0.08953193809296416
C 2.89994063 1.99830248 12.21905069 6 -0.17454490265456055 0.3187421749362963 0.8906826374041139
C 1.70862121 1.55661677 1.38637449 6 -0.2332308735871848 -0.3873604248960408 0.6186200653495357
C 1.69852101 0.16055740 8.15672084 6 -1.6272151523213525 -0.9526327400089347 -0.4055576889718251
C 0.41392292 0.57107242 12.18876291 6 0.16072929949686582 0.26798896452732607 -0.6914867778496955
C 0.41473511 -0.59343224 8.09818678 6 1.2858575385501982 2.0534787605284035 0.9181101890571133
C 1.59790718 -0.19236831 5.41130713 6 0.24015410354954653 0.651295324515233 -0.7995404903516968
C 1.69173162 0.11860075 1.40596858 6 0.8069934281480531 0.5778449048387784 -0.17254435559219336
C 0.37760827 0.52895798 5.29381320 6 -0.44712483983632156 1.1073351986256255 0.9523195438235924
C 1.66379574 -0.15789092 12.19920905 6 -0.9964997485759778 1.7844401516426476 -0.09112620438945215
C 2.95258863 3.72631086 1.31706025 6 0.373340138517055 0.35637045948956647 0.9597102538064404
C 2.86076749 4.88924235 5.38202634 6 0.00524873607159888 -0.8407425028063525 -0.15289425206880303
C 4.19418799 4.44425939 1.35858616 6 0.09420982397453023 -0.7004779254824374 -0.09199893661691672
C 2.83756397 0.54820548 5.36035549 6 1.2879552844287063 -1.071300666089393 -0.5788266643097448
C 2.93207566 -0.61474123 1.38953497 6 1.0405662975698071 1.2180035078538671 0.6542735168129626
C 2.88330040 -2.28554513 12.20050724 6 1.0797461632251755 -0.5589050212365011 -0.5059573804123326
C 2.92822041 -2.02143544 8.17824094 6 -0.47660745217343903 0.4250277946875475 0.08386046431307072
C 1.65034272 -1.56659532 12.17316263 6 -0.4082072567006981 -1.4256361217934097 0.04950865413880864
C 1.66451141 -2.72724269 8.14895825 6 1.1050127126272578 0.21197724673719784 0.29841425109717334
C 2.87272035 -2.29577396 5.35854187 6 -0.9773428390455977 -1.7335033434698561 0.18065557108516392
C 2.93788352 -2.05469807 1.37412896 6 0.6296631879896928 0.022704409179791038 0.24408011287451087
C 1.61068771 -1.60698541 5.40389254 6 0.08344595507598383 -0.4678806441782439 -0.285630806796592
C 1.69471995 -2.75441411 1.39655085 6 -0.0367426953395436 -1.0347863108258624 0.2180652868719801
C 4.14839998 4.17278219 12.27328197 6 -0.041281725769480075 0.4875585187919601 -0.2960840509070485
C 4.17302811 4.47351388 8.08521488 6 -0.10271497752656847 -0.7655862181926558 0.3741326431502447
C 2.89821621 4.91083532 12.20316558 6 -0.3717011299083752 -0.7864340785562141 -0.4316784565411548
C 2.93416728 3.75787544 8.14119539 6 -0.9175557958094958 0.25866559236957415 0.02708555581843016
C 4.09304581 4.16153239 5.44033508 6 0.18799793879966686 -0.16993901589606167 -0.2704225348869974
C 6.65609848 0.12412849 8.16871096 6 0.026767731118033516 0.22245517626127734 -0.2168639300756588
C 6.61726639 -0.14628039 12.15615055 6 1.0576969460652959 0.3482643867911007 0.29088725705994806
100
energy=-989.6693897244833 config_type=Graphite dft_virial = "0.011651045255094786 -7.335596495603498e-05 0.0001450818472135268 -7.335596495603498e-05 0.011950794003655294 -4.914711484696924e-05 0.0001450818472135268 -4.914711484696924e-05 0.008271668241431291" Lattice="12.32191500 0.00000000 0.00000000 6.16095750 10.67109141 0.00000000 0.00000000 0.00000000 20.00000000" Properties=species:S:1:pos:R:3:Z:I:1:force:R:3
C 0.00000000 0.00000000 0.00000000 6 -0.01620134552847144 -0.01932507891068696 -0.04351472714346424
C 2.46438300 0.00000000 0.00000000 6 -0.019931928662253358 -0.012687788322792078 -0.06191461732273768
C 4.92876600 0.00000000 0.00000000 6 0.046546404504043834 -0.00929251539072312 -0.05960293119283007
C 7.39314900 0.00000000 0.00000000 6 -0.01098706618005472 -0.00805258763561584 -0.05945790438779471
C 9.85753200 0.00000000 0.00000000 6 0.04383820891781616 0.01660299777929632 -0.05282369947660272
C 1.23219150 2.13421828 0.00000000 6 0.0322633213258628 -0.01211745241220976 -0.04995607726072624
C 3.69657450 2.13421828 0.00000000 6 -0.01446873805980432 -0.0109772948704956 -0.05226776339063384
C 6.16095750 2.13421828 0.00000000 6 0.04059619126199024 0.00841001185369944 -0.03567196552364424
C 8.62534050 2.13421828 0.00000000 6 -0.00811841540527728 -0.0225922962595864 -0.03657452595923664
C 11.08972350 2.13421828 0.00000000 6 0.008911948597367918 0.054666362747672566 -0.046517090575366474
C 2.46438300 4.26843656 0.00000000 6 0.02634499340973896 0.022436469586090958 -0.040036655219867996
C 4.92876600 4.26843656 0.00000000 6 0.0060093553788587994 -0.026058025476371118 -0.0643209308715336
C 7.39314900 4.26843656 0.00000000 6 0.008946405320550079 0.06167393453991303 -0.056464283706550635
C 9.85753200 4.26843656 0.00000000 6 0.026083225169444637 0.00540970553959912 -0.05834037514190168
C 12.32191500 4.26843656 0.00000000 6 -0.010632213359223519 -0.015162501038501839 -0.0682937396264916
C 3.69657450 6.40265485 0.00000000 6 -0.02205795991053768 0.0149835317897348 -0.05215770758823112
C 6.16095750 6.40265485 0.00000000 6 0.00723951182440696 0.00395532325364168 -0.036849665465243445
C 8.62534050 6.40265485 0.00000000 6 -0.0132118390828312 -0.00743288089778744 -0.045744642840745524
C 11.08972350 6.40265485 0.00000000 6 -0.0062382097343223995 0.03967203108947768 -0.04445071574333784
C 13.55410650 6.40265485 0.00000000 6 -0.0176963558910168 -0.04055813458265472 -0.06524869100019952
C 4.92876600 8.53687313 0.00000000 6 -0.02191550450275472 -0.02536837673327744 -0.054218939625754956
C 7.39314900 8.53687313 0.00000000 6 -0.00969519620044896 0.02623030909228192 -0.04918362952610528
C 9.85753200 8.53687313 0.00000000 6 -0.004244348304811439 -0.007363453171972639 -0.04317787410339984
C 12.32191500 8.53687313 0.00000000 6 0.00811327261077248 -0.01692853667145016 -0.06947349668589271
C 14.78629800 8.53687313 0.00000000 6 0.009746624145496959 -0.0034600721428294403 -0.023881080562489276
C 1.23219156 0.71140613 0.00000000 6 0.02543677590019128 0.030212889156799042 -0.033851416268945035
C 3.69657456 0.71140613 0.00000000 6 -0.01619517417506568 0.019760159325793038 -0.046866800601692876
C 6.16095756 0.71140613 0.00000000 6 -0.01509204475378608 -0.0158500926637936 -0.041598007631525276
C 8.62534056 0.71140613 0.00000000 6 0.0010373016516181598 0.01594060584707808 -0.06125376822887088
C 11.08972356 0.71140613 0.00000000 6 -0.02180339158255008 -0.0467814302129132 -0.04342627107798168
C 2.46438306 2.84562441 0.00000000 6 -0.02364605485361992 -0.0182800630673116 -0.051610514252920396
C 4.92876606 2.84562441 0.00000000 6 -0.007208140777927681 0.04369421067168176 -0.04898460337876952
C 7.39314906 2.84562441 0.00000000 6 -0.03749508617559584 -0.04281427853191048 -0.03536339785335624
C 9.85753206 2.84562441 0.00000000 6 0.04004796936777856 -0.0008912462876818399 -0.019997756431914798
C 12.32191506 2.84562441 0.00000000 6 -0.03962214598278112 -0.00360304183006288 -0.057097875989541996
C 3.69657456 4.97984269 0.00000000 6 -0.03627830099576016 -0.014193598553797518 -0.03578202132604696
C 6.16095756 4.97984269 0.00000000 6 0.01729573219909288 -0.00997136426535672 -0.05144183059316296
C 8.62534056 4.97984269 0.00000000 6 -0.038367818403060396 -0.006822945469518159 -0.0589467106140176
C 11.08972356 4.97984269 0.00000000 6 -0.02424981892848344 -0.02205795991053768 -0.0643955013918532
C 13.55410656 4.97984269 0.00000000 6 -0.0014368967846411199 0.040730932478016 -0.03106453592679392
C 4.92876606 7.11406098 0.00000000 6 -0.00038930954401336 0.02083191770059336 -0.05442156572924407
C 7.39314906 7.11406098 0.00000000 6 0.00693094415411896 -0.02009238385080312 -0.04774261850586032
C 9.85753206 7.11406098 0.00000000 6 0.026172195514377678 0.00030959622918896 -0.04610618129443296
C 12.32191506 7.11406098 0.00000000 6 -0.013008698699891599 -0.0012270707688452798 -0.04793650185869128
C 14.78629806 7.11406098 0.00000000 6 0.028604223035697596 -0.0026377393015119197 -0.03364621876820352
C 6.16095756 9.24827926 0.00000000 6 0.02931084300065712 0.01712601998043448 -0.06517823471548376
C 8.62534056 9.24827926 0.00000000 6 -0.00981553759186128 0.007367053128126 -0.06272923597229799
C 11.08972356 9.24827926 0.00000000 6 -0.02370108275482128 0.0095835975596948 -0.03280382902831728
C 13.55410656 9.24827926 0.00000000 6 0.00315921866429864 0.012026939228925278 -0.0569667347296696
C 16.01848956 9.24827926 0.00000000 6 -0.00228751499573504 -0.01537592701045104 -0.02288594982581048
C 0.00000000 0.00000000 3.40000000 6 -0.034773519323655674 -0.01063941327153024 0.06774603201173039
C 2.46438300 0.00000000 3.40000000 6 -0.0025482546771284 0.031525330314424 0.071009135125026
C 4.92876600 0.00000000 3.40000000 6 -0.01742687345896528 0.01736773132216008 0.05810740655083424
C 7.39314900 0.00000000 3.40000000 6 0.00972553868802728 0.010451701272105039 0.069260584993394
C 9.85753200 0.00000000 3.40000000 6 -0.013897887869771518 -0.0176217853706972 0.059180707763986
C 1.23219150 2.13421828 3.40000000 6 -0.0037758397254241596 0.013989429611956958 0.07281271315785935
C 3.69657450 2.13421828 3.40000000 6 0.0038694385854115203 0.007059514016738959 0.0364006995049744
C 6.16095750 2.13421828 3.40000000 6 -0.04686782916059384 -0.00939742839862104 0.0630223752590716
C 8.62534050 2.13421828 3.40000000 6 -0.00475297068133616 0.0213837395509584 0.06610908052085256
C 11.08972350 2.13421828 3.40000000 6 0.008284013388331839 0.00458377274212824 0.07378778699596944
C 2.46438300 4.26843656 3.40000000 6 0.00411834983944384 0.01192305477992832 0.05095069371795456
C 4.92876600 4.26843656 3.40000000 6 0.0214763098520448 0.05464682012855432 0.08314973011250736
C 7.39314900 4.26843656 3.40000000 6 0.0030419629495892 -0.024150562994540797 0.07107187721798455
C 9.85753200 4.26843656 3.40000000 6 0.02025026764210048 -0.0004962796697132 0.02566408741730344
C 12.32191500 4.26843656 3.40000000 6 0.04785935994111928 0.0416206359273464 0.03017174680076064
C 3.69657450 6.40265485 3.40000000 6 -0.01684470912102192 0.012834357966178881 0.038406903641296876
C 6.16095750 6.40265485 3.40000000 6 -0.03745445809900792 -0.0378329677745612 0.08053976190132135
C 8.62534050 6.40265485 3.40000000 6 0.00926011578534288 0.0027102527040296 0.05795415127459119
C 11.08972350 6.40265485 3.40000000 6 0.006135353844226399 -0.014205941260609038 0.07031382930797704
C 13.55410650 6.40265485 3.40000000 6 0.01417457021412976 0.044731512323299916 0.10880250338190023
C 4.92876600 8.53687313 3.40000000 6 0.024971867276957358 0.0214608814685304 0.06713866798071352
C 7.39314900 8.53687313 3.40000000 6 0.026819159063081518 -0.053524662367606966 0.0481571277429472
C 9.85753200 8.53687313 3.40000000 6 -0.00578770093570192 0.00147649630232808 0.05877905551316112
C 12.32191500 8.53687313 3.40000000 6 -0.00902354723812208 0.01626100194472712 0.05765638347276328
C 14.78629800 8.53687313 3.40000000 6 -0.026548133792678556 0.00855812433543768 0.04079316029152408
C 1.23219156 0.71140613 3.40000000 6 0.033985128926069835 -0.01569375171084768 0.06298483285918656
C 3.69657456 0.71140613 3.40000000 6 0.00847686818226184 -0.014786562760200959 0.08142637967394888
C 6.16095756 0.71140613 3.40000000 6 0.012680074131034879 0.00164929419768936 0.0425411961437056
C 8.62534056 0.71140613 3.40000000 6 -0.00723436902990216 -0.01025781791927408 0.044130319645688795
C 11.08972356 0.71140613 3.40000000 6 0.03793016659070192 0.0024273990062656 0.0751079423453516
C 2.46438306 2.84562441 3.40000000 6 0.0029663638703686396 -0.01264150317224888 0.053606947079683755
C 4.92876606 2.84562441 3.40000000 6 0.020320723926816237 -0.04674131641577576 0.05712616135931839
C 7.39314906 2.84562441 3.40000000 6 0.04996276289358248 0.0402063674385264 0.06868253489105448
C 9.85753206 2.84562441 3.40000000 6 -0.01315423978437744 -0.00836681237985912 0.07464714795772151
C 12.32191506 2.84562441 3.40000000 6 0.0050522813215155195 -0.03163538611682672 0.042773136175872084
C 3.69657456 4.97984269 3.40000000 6 -0.00050090818476752 -0.02282269345340144 0.06013521042407688
C 6.16095756 4.97984269 3.40000000 6 -0.03001386300946328 0.00628398060541512 0.04433191719027696
C 8.62534056 4.97984269 3.40000000 6 -0.01848628912695408 -0.00164260856483312 0.04912037315369624
C 11.08972356 4.97984269 3.40000000 6 -0.0116587151423816 -0.00081564720846128 0.06608696650448193
C 13.55410656 4.97984269 3.40000000 6 -0.03631892907234808 -0.06982783522727344 0.0553390402689004
C 4.92876606 7.11406098 3.40000000 6 0.01730447494975104 -0.0091901737800776 0.061329881587541914
C 7.39314906 7.11406098 3.40000000 6 0.01681230951564168 0.06491338079848656 0.06818265526518792
C 9.85753206 7.11406098 3.40000000 6 -0.0101133053936892 -0.006653233250859759 0.07133004550212552
C 12.32191506 7.11406098 3.40000000 6 -0.007341339155602 -0.006755574861505279 0.04722165342252408
C 14.78629806 7.11406098 3.40000000 6 -0.0003908523823648 -0.01434685383004056 0.06698541270447048
C 6.16095756 9.24827926 3.40000000 6 -0.04801878657076808 0.00523999332094072 0.05618451568548952
C 8.62534056 9.24827926 3.40000000 6 -0.00168632231812392 -0.013751832505835199 0.045089450820834
C 11.08972356 9.24827926 3.40000000 6 0.012276364762408079 -0.00955839786662128 0.07359338936368799
C 13.55410656 9.24827926 3.40000000 6 0.0256856871542236 -0.0098021663261488 0.0799858829331544
C 16.01848956 9.24827926 3.40000000 6 0.00598724136248816 0.016062490076841837 0.05085760913741768
100
energy=-989.8831373824042 config_type=Graphite dft_virial = "0.013763320320164415 -0.0002860144070589951 6.708702906836203e-05 -0.0002860144070589951 0.013563614180529659 7.768960138537293e-05 6.708702906836203e-05 7.768960138537293e-05 -0.0012381855376277543" Lattice="12.32191500 0.00000000 0.00000000 6.16095750 10.67109141 0.00000000 0.00000000 0.00000000 20.00000000" Properties=species:S:1:pos:R:3:Z:I:1:force:R:3
C 0.00000000 0.00000000 0.00000000 6 0.00336493044449064 -0.026743045704410478 0.0105118719678112
C 2.46438300 0.00000000 0.00000000 6 -0.02434701774462416 -0.0016996935838363997 -0.01433091116707568
C 4.92876600 0.00000000 0.00000000 6 0.050988750397290075 0.01034781682310808 -0.01169368614501424
C 7.39314900 0.00000000 0.00000000 6 0.016541284245238718 0.0068738591351156795 -0.0083338984950284
C 9.85753200 0.00000000 0.00000000 6 0.034315296333278 -0.02205075999823096 0.008464525475450319
C 1.23219150 2.13421828 0.00000000 6 0.00226591525881488 -0.00101673047359896 0.007377338717135599
C 3.69657450 2.13421828 0.00000000 6 -0.026944643248998642 -0.018089779670634 0.00961496860617408
C 6.16095750 2.13421828 0.00000000 6 0.022054874233834797 0.00421040586107976 0.027350924014877837
C 8.62534050 2.13421828 0.00000000 6 0.0317490418753828 -0.01045890118441176 0.01868531527428984
C 11.08972350 2.13421828 0.00000000 6 0.01759401428037128 0.02138939662491368 0.01064507034548552
C 2.46438300 4.26843656 0.00000000 6 0.0131475541515212 0.023523142064955198 0.0252408354295584
C 4.92876600 4.26843656 0.00000000 6 0.0202780387324264 -0.02084991748136016 -0.00782784751575608
C 7.39314900 4.26843656 0.00000000 6 0.0110492939935628 0.00586432857382344 -0.00100901628184176
C 9.85753200 4.26843656 0.00000000 6 0.01500461724720448 0.0097918807371392 0.00096633108745192
C 12.32191500 4.26843656 0.00000000 6 -0.0138315458206596 -0.01649859905084888 -0.01608460409321248
C 3.69657450 6.40265485 0.00000000 6 -0.024314103859793438 -0.028001487519735038 0.0142121126140148
C 6.16095750 6.40265485 0.00000000 6 0.00048290840400071997 -0.01028353189179808 0.0065416346101056
C 8.62534050 6.40265485 0.00000000 6 0.00149501036254536 -0.011856712730816399 0.0076149358232573605
C 11.08972350 6.40265485 0.00000000 6 -0.00053536490794968 0.04274896504169952 0.00753882246458632
C 13.55410650 6.40265485 0.00000000 6 -0.00787670406355168 -0.03777228279940456 -0.0086836085213548
C 4.92876600 8.53687313 0.00000000 6 0.0020494036101628 -0.03587150595043048 0.00024325418007703996
C 7.39314900 8.53687313 0.00000000 6 -0.00635495116958136 0.0083776122483192 -0.00234357145583736
C 9.85753200 8.53687313 0.00000000 6 0.00585610010261576 -0.00718242680540368 0.02273680878517128
C 12.32191500 8.53687313 0.00000000 6 0.01023518962345296 -0.00995233592568896 -0.016418371456574
C 14.78629800 8.53687313 0.00000000 6 0.00707751379750576 0.006087525855331759 0.03287839954863688
C 1.23219156 0.71140613 0.00000000 6 0.025308720317021756 0.01235864947448488 0.014539708623970558
C 3.69657456 0.71140613 0.00000000 6 -0.01073866920547288 0.014936732359741118 0.015541524993505598
C 6.16095756 0.71140613 0.00000000 6 -0.03445209466710568 -0.01488119017908928 0.007893675285417519
C 8.62534056 0.71140613 0.00000000 6 -0.03131653285752912 0.00604638349929336 -0.021075686160120878
C 11.08972356 0.71140613 0.00000000 6 -0.01840966148883256 -0.004644457717284879 0.02094865913585232
C 2.46438306 2.84562441 0.00000000 6 -0.01443890985167648 -0.02094248778244656 0.01160265868227928
C 4.92876606 2.84562441 0.00000000 6 0.00378458247608232 0.043760552720793676 -0.00059810700090824
C 7.39314906 2.84562441 0.00000000 6 -0.03464134950488232 -0.00216563076597128 0.01769841300881872
C 9.85753206 2.84562441 0.00000000 6 0.00142146840112672 -0.02409862077004232 0.0513662315139424
C 12.32191506 2.84562441 0.00000000 6 -0.025224378487143036 -0.010007878106340799 -0.0059579274338108
C 3.69657456 4.97984269 0.00000000 6 -0.028973475681142242 0.016908994052331917 -0.0034801290413981594
C 6.16095756 4.97984269 0.00000000 6 -0.0042248056856932 0.0005939927653043999 0.0041502351653736
C 8.62534056 4.97984269 0.00000000 6 -0.01776166938122776 0.013920516165592638 -0.009618568562327439
C 11.08972356 4.97984269 0.00000000 6 -0.01737184555776392 -0.023922737197978158 -0.020644719980618637
C 13.55410656 4.97984269 0.00000000 6 0.01640191451415864 0.027831775301076642 0.032322463462668004
C 4.92876606 7.11406098 0.00000000 6 0.012660017232466158 0.04478808306285272 0.00919994508963672
C 7.39314906 7.11406098 0.00000000 6 0.01686219462233824 -0.005052795600966 0.02198493222856952
C 9.85753206 7.11406098 0.00000000 6 0.01345406470400728 0.00029108216897168 0.02187179074946392
C 12.32191506 7.11406098 0.00000000 6 -0.02843399653758872 -0.0018488346244755999 0.006068497515663999
C 14.78629806 7.11406098 0.00000000 6 0.01706173504912448 0.0032682459078004 0.019195480489166
C 6.16095756 9.24827926 0.00000000 6 0.00739430993900144 0.0202394677736404 -0.01004799190347824
C 8.62534056 9.24827926 0.00000000 6 -0.00441354624401936 0.008212014265264638 -0.00044742312191759995
C 11.08972356 9.24827926 0.00000000 6 -0.02667927505255096 -0.006195010260482079 0.029630210539405198
C 13.55410656 9.24827926 0.00000000 6 0.00808344440264464 0.00201751828423304 0.00714694152332056
C 16.01848956 9.24827926 0.00000000 6 -0.00401703678769928 0.01385777407263408 0.02924244383374328
C 0.00000000 0.00000000 3.70000000 6 -0.025676430124114958 -0.00860852372158472 0.0045472589011441595
C 2.46438300 0.00000000 3.70000000 6 0.00979085217823824 0.01188602665949376 0.00594352760919736
C 4.92876600 0.00000000 3.70000000 6 -0.01564489516305208 0.00692580135961416 0.008251613782951599
C 7.39314900 0.00000000 3.70000000 6 0.00199129003225856 0.013285381044249839 0.00040165225082487997
C 9.85753200 0.00000000 3.70000000 6 0.0008331327097776 -0.021129171222970797 -0.01711933434757824
C 1.23219150 2.13421828 3.70000000 6 0.00600112690765112 -0.0049211400616431195 0.0161946598956152
C 3.69657450 2.13421828 3.70000000 6 0.0009154174218543999 0.0110338656100484 -0.030916937724506162
C 6.16095750 2.13421828 3.70000000 6 -0.036582754430444314 -0.004349261312709359 -0.022712123371548237
C 8.62534050 2.13421828 3.70000000 6 -0.02648384886136856 0.0014636393160660799 0.00452874484092688
C 11.08972350 2.13421828 3.70000000 6 0.00749716582909744 -0.0009154174218543999 0.02384559528040616
C 2.46438300 4.26843656 3.70000000 6 0.0011288433938036 0.01075152619173488 -0.00164929419768936
C 4.92876600 4.26843656 3.70000000 6 0.0225151543420144 0.040785960379217355 0.00122809932774624
C 7.39314900 4.26843656 3.70000000 6 0.00703740000036832 0.00553210404881336 0.02244984085180344
C 9.85753200 4.26843656 3.70000000 6 0.025281463506146316 -0.015067873619613521 -0.038530844988862556
C 12.32191500 4.26843656 3.70000000 6 0.041322868125518476 0.02905884606992192 -0.04228765637461896
C 3.69657450 6.40265485 3.70000000 6 0.00263979641931384 0.027224925549510236 -0.02128705501426816
C 6.16095750 6.40265485 3.70000000 6 -0.027404409077727756 -0.02519763595571808 0.014576222464954639
C 8.62534050 6.40265485 3.70000000 6 0.02579060016212152 -0.00552027562145232 -0.015465411634834558
C 11.08972350 6.40265485 3.70000000 6 0.018303205642583198 -0.01963056090427208 0.01598483387981936
C 13.55410650 6.40265485 3.70000000 6 0.02893696184015816 0.0399286565352672 0.03446032313831336
C 4.92876600 8.53687313 3.70000000 6 0.03836730412360992 0.03552076736520312 0.0051453659020524005
C 7.39314900 8.53687313 3.70000000 6 0.034800776134531114 -0.05575457806488824 -0.014903818474910398
C 9.85753200 8.53687313 3.70000000 6 0.00198563295830328 -0.0039784658289132805 -0.00262642515360136
C 12.32191500 8.53687313 3.70000000 6 -0.01242036300854248 0.00088404637537512 -0.0135461207256432
C 14.78629800 8.53687313 3.70000000 6 -0.03362667614908528 0.010512900526712159 -0.026027682988792798
C 1.23219156 0.71140613 3.70000000 6 0.0080407592082548 0.00859463817642176 -0.0063811794215558396
C 3.69657456 0.71140613 3.70000000 6 -0.00528216423588008 -0.01000942094469224 0.03289639932940368
C 6.16095756 0.71140613 3.70000000 6 0.02737663798740184 -0.01346743596971976 -0.03790650973597984
C 8.62534056 0.71140613 3.70000000 6 -0.00521325078951576 0.00376503985696408 -0.029646153202370077
C 11.08972356 0.71140613 3.70000000 6 0.01604757597277792 0.00675917481765864 0.023388915128379918
C 2.46438306 2.84562441 3.70000000 6 0.00157678079517168 -0.014708392283728 -0.008457325563143601
C 4.92876606 2.84562441 3.70000000 6 0.00221808726992024 -0.037541371326139036 -0.013873202456148481
C 7.39314906 2.84562441 3.70000000 6 0.05472601916392823 0.02164293639400032 0.022322813827534878
C 9.85753206 2.84562441 3.70000000 6 0.009359885998736 0.021999332053182958 0.016004376498937597
C 12.32191506 2.84562441 3.70000000 6 -0.00172746467416232 -0.026391278560282158 -0.03350684903712344
C 3.69657456 4.97984269 3.70000000 6 -0.00423406271580184 -0.02271366620989968 -0.00184266327106984
C 6.16095756 4.97984269 3.70000000 6 -0.02147528129314384 0.00066547760892112 -0.0237751389956904
C 8.62534056 4.97984269 3.70000000 6 -0.02735863820663504 0.0009395885560269599 -0.02667824649365
C 11.08972356 4.97984269 3.70000000 6 -0.024172677010911442 0.010355016735414798 0.01598586243872032
C 13.55410656 4.97984269 3.70000000 6 -0.02555043165874736 -0.05094452236454879 -0.00799293121936016
C 4.92876606 7.11406098 3.70000000 6 0.00465577186519544 -0.025718086759603836 -0.00456525868191096
C 7.39314906 7.11406098 3.70000000 6 -0.00569873059076888 0.07465691926728063 0.00759950743974296
C 9.85753206 7.11406098 3.70000000 6 -0.01853874563090304 0.00185603453678232 0.0018215778136001601
C 12.32191506 7.11406098 3.70000000 6 -0.01546386879648312 -0.0006505635048571999 -0.01736567420435816
C 14.78629806 7.11406098 3.70000000 6 -0.016533055774031042 -0.01975501653128824 0.0152046719534412
C 6.16095756 9.24827926 3.70000000 6 -0.0642129321869328 0.00213888823454632 0.00526725013181616
C 8.62534056 9.24827926 3.70000000 6 -0.014309825709606 -0.013489549986090399 -0.02751755055683336
C 11.08972356 9.24827926 3.70000000 6 -0.0054693619558548 -0.009945650292832718 0.02041277994845216
C 13.55410656 9.24827926 3.70000000 6 0.03938660599446128 -0.005837071762947999 0.0237699962011856
C 16.01848956 9.24827926 3.70000000 6 0.008941262526045279 0.02164396495290128 -0.02943632718657424
72
energy=-694.4027665051799 config_type=Graphite dft_virial = "0.12054495733782519 -0.001040426092847093 -0.007005801817780527 -0.001040426092847093 0.12216969601756653 0.002375212632080965 -0.007005801817780527 0.002375212632080965 0.0005038230452817225" Lattice="3.62864164 -6.28499230 0.00000000 3.62864164 6.28499230 0.00000000 0.00000000 0.00000000 13.15406096" Properties=species:S:1:pos:R:3:Z:I:1:force:R:3
C 0.98075191 0.12579054 1.53534371 6 -0.3651353241640971 0.01521958605750512 -0.8434028704036856
C 6.26205120 0.95412361 5.14248082 6 -1.5932943083265927 -0.2021992515452216 -0.13028344174899936
C 4.63273196 -3.33548394 1.40410945 6 -1.6864668306495048 0.8771200597360552 -0.5848365339680541
C 5.03702305 1.65189571 5.20644599 6 -0.12859917654867736 -0.018855541772398718 -0.9523817716371004
C 3.38721305 -4.04578109 1.34846528 6 1.2209544433407213 -0.4571327179426624 1.3945900999268332
C 4.88086043 1.15009470 11.80480815 6 -3.1277226479128934 -0.08652648898435904 -0.7843527896201214
C 2.83583199 -2.81056597 7.98838690 6 -0.6243069675129436 2.10673496902286 0.36271666790848966
C 4.03087069 -3.47808181 8.06291123 6 2.492930036684113 0.10994317520306487 0.3438282122512602
C 3.63317095 1.84818803 11.74517079 6 1.542025275628791 -1.7357183450630735 0.11296045273903102
C 3.82071352 0.93679664 5.13919783 6 1.5858367420151822 -1.0330146181189586 -0.07060079724134487
C 2.20579548 -3.38781555 1.42777032 6 -1.9265180783089553 1.2760949717417365 -0.444850696106299
C 2.61960563 1.59621188 5.13011258 6 -0.47431170870649625 2.7469825423828818 0.044634827786609675