1
energy=0.8058155222528588 config_type=Single_Atom dft_virial = "3.7820002260449217e-07 8.870571356425781e-10 -8.818233156455079e-07 8.870571356425781e-10 3.665474007304688e-07 5.777967176826172e-07 -8.818233156455079e-07 5.777967176826172e-07 2.1939544396191407e-05" Lattice="25.00000000 0.00000000 0.00000000 0.00000000 25.00000000 0.00000000 0.00000000 0.00000000 25.00000000" Properties=species:S:1:pos:R:3:Z:I:1:force:R:3
C 0.00000000 0.00000000 0.00000000 6 5.1427945048e-07 0.0 2.262829582112e-05
