216
energy=-1186.0762440451804 config_type=Liquid dft_virial = "1.6986783880843739 0.03501773728159517 -0.027458109030951198 0.03501773728159517 1.7566721463900856 -0.03598143460619008 -0.027458109030951198 -0.03598143460619008 1.8406811656245758" Lattice="9.64001284 0.00000000 0.00000000 0.00000000 9.64001284 0.00000000 0.00000000 0.00000000 9.64001284" Properties=species:S:1:pos:R:3:Z:I:1:force:R:3
C 3.05394999 8.49424998 5.35796001 6 1.3740898924717995 24.102729862851653 -1.2016036504575105
C 7.49833004 9.25934001 2.67010001 6 2.9600346331715826 -3.7673469145789333 -0.6591853998444972
C 4.48141003 7.14658997 5.55117999 6 11.381347777795321 -0.2652679119548364 2.0479060284030024
C 4.24073005 6.90603001 9.28122005 6 2.2955284981324193 1.6384989577443343 -13.29939413071652
C 8.22220005 5.73267001 0.67571998 6 5.228055866336178 9.286683461754677 -15.955046814047558
C 6.76814996 6.14585002 2.32597999 6 -0.9804614296333084 5.855974104150392 -2.852813024820458
C 7.74717000 6.93678001 0.14183997 6 -4.617047651133197 0.38977856687219775 -1.3691605239389486
C 2.47138001 0.06122999 9.05152997 6 0.09410696808443424 -6.335742317826481 -5.462991062022253
C 9.62193001 8.80210996 1.54334003 6 2.669286231563264 -1.4868729188004148 1.6277386888019414
C 6.74808003 4.04914000 0.81771004 6 2.975808612476705 -11.159866646813253 2.941356003530149
C 8.70838002 6.76318998 5.95905000 6 -7.465276903211526 7.132110732527618 9.636150233900999
C 9.57453999 6.27495997 2.46511998 6 -11.531041154564337 -0.42924334334313197 10.37138830744138
C 7.96684999 1.40883997 2.10955004 6 0.475657063748952 0.6653618960447619 0.9305228378738986
C 9.33975999 4.11859002 3.88226000 6 0.5014008644810799 -2.7536460612227507 -9.250563558829665
C 6.02307000 1.85651002 3.27244002 6 3.359307827258542 2.9155278609681425 -0.16804595323884478
C 6.41448999 7.59612999 3.25092997 6 -15.683620405673222 5.967265720072615 -29.399151982216843
C 8.30401002 8.33937999 3.21080997 6 2.420540061234548 -2.6948217491179474 -4.955699640715376
C 7.71226004 6.34985997 3.91400003 6 -0.10334651269175793 -5.166209133900904 0.4076729203516493
C 7.01787999 0.58188997 5.05977002 6 0.14152353341869023 1.5737244323974773 -5.55782933548527
C 9.26758001 2.42947999 4.64824000 6 14.584839217147431 7.2959586226121935 -0.2354679891967728
C 2.33781002 6.39614004 6.34786999 6 3.304328268325527 1.3099047313751926 -6.279748599817119
C 2.32971000 8.15053002 2.91223997 6 -2.1678395962110915 0.00077090489626952 2.1441709130616506
C 0.80234000 0.95903995 8.76145003 6 -2.1468775658095267 -7.836063129977497 -8.210219944261915
C 5.30557001 6.92748000 2.30089995 6 3.1826142650598763 -1.9510265798010302 2.8704065248213784
C 4.25770997 7.48060996 4.23524999 6 3.9228773631108966 0.24754172785569176 -0.5014677208096422
C 4.24468004 6.29957005 0.66212004 6 -1.373653269218342 9.39901546500522 6.949241188408137
C 8.44643002 8.76261001 7.49183999 6 -3.244485168629323 1.3862346016948845 2.1800321334230714
C 9.62187998 2.84409000 3.37737002 6 -2.547352630972258 6.741285606973693 15.98707202398785
C 0.84499995 8.20093996 9.15066998 6 -0.6698952694007432 -0.3817948926829462 2.4112280032247067
C 3.29579999 5.47461998 0.31070002 6 -8.944822368401502 0.21679604518819545 2.2474798833535234
C 0.67356997 4.65822001 2.48034002 6 -1.7256040111104831 -4.410968675413554 1.6604268049539004
C 6.60701001 4.82907999 2.07586995 6 3.982710177218091 0.5248154935819838 3.2929740066178295
C 1.26957995 0.28431001 2.29957002 6 0.527521117770959 1.7248634487017922 -6.243970692726676
C 5.80844996 0.22134000 8.13601997 6 -4.069370893139025 -0.832911055334443 -9.911790648092566
C 6.42896997 4.14395001 5.90671003 6 3.292543040438327 4.8236121066540925 7.795020029873039
C 9.04328997 8.76024001 4.64442997 6 -5.586021106401684 -1.0721713411990554 8.417345992942735
C 1.21143005 7.05610004 3.85393003 6 0.5496284485087428 4.624987097289707 -1.0767237428947045
C 4.67968003 9.04547999 3.61829996 6 -13.883111078320878 0.5891276817028591 13.541127072179039
C 8.63171001 9.40907004 0.80284003 6 3.442090876122857 -3.2973212108127368 1.8470716745193545
C 8.99740997 5.90350000 4.30019996 6 0.15381429800571175 10.630474066121996 -5.7439126118908
C 8.62280996 0.49393999 5.82932001 6 4.913157930292219 -6.262721835770628 -1.758420182845612
C 3.69090999 8.47432996 0.76525998 6 3.835147460212414 1.7615809443482622 5.032744359471235
C 7.76544997 3.72099001 3.99084000 6 3.9161043027480753 10.944214873402375 -11.10167644127089
C 8.12140002 5.35774003 5.89350996 6 -5.823421243493909 -3.187184152256841 -1.3252950582102572
C 8.16273004 5.12180997 1.66992998 6 -0.49996551053479016 -8.811658961729814 6.470122509678005
C 1.90924002 6.29727997 9.55235003 6 4.946364954409713 -0.6620571362959775 -4.663222231594544
C 4.04542001 0.71262002 4.32883003 6 -0.4121857225296114 -2.3807019178825652 1.5110558814003359
C 3.23851999 7.37632999 7.22380002 6 4.494584856987647 -9.720592348272563 2.5964097477535453
C 7.31180996 0.07300999 1.43051997 6 4.043726862620291 2.4389466370466777 -2.97458154170786
C 4.69858998 1.20958003 7.67052004 6 1.9085548113831392 1.7770869840596846 -10.39154137626734
C 4.79477002 4.03987999 4.18412997 6 6.501009104914932 -3.9513885015660577 -3.188186997185277
C 5.39840999 0.11237999 3.08811998 6 11.743985760947886 19.003659396931464 -17.99355489977249
C 8.74512997 4.81494001 4.84847000 6 -3.806645578787362 -8.181842004184428 5.97140566964898
C 2.99397003 3.21220999 4.99932001 6 -10.784637045595133 4.633556021493605 -10.0660035126724
C 1.70905002 7.47608002 1.58395996 6 3.1608155019923805 2.9557583995408416 9.977263564933175
C 8.16788002 4.59436004 6.89295998 6 -6.4296471740868775 8.467305155880164 9.172579251517778
C 1.41548001 6.73298002 7.19155003 6 -3.2591894466774467 3.510956494498283 5.026680490470626
C 1.27672002 1.09967000 0.98113997 6 -1.8323992817971602 -10.341488614469922 3.4201146866449457
C 4.64365000 8.06969003 2.05923004 6 4.165580749896472 1.3457788087228755 -12.344975298176067
C 1.88610996 2.94025000 0.79753995 6 2.9085017751156843 5.932941166709229 2.9291866088934406
C 0.21834995 5.16944002 8.89232004 6 -5.000346811208797 -2.073298061991002 -10.223763876901646
C 0.59007001 3.88177000 8.92377001 6 -2.607951207181217 -6.325716439939374 4.835941442199901
C 1.99017005 9.46933998 5.59418004 6 2.116940330438185 -0.690971984119765 -2.218100126906502
C 3.74411004 0.86265997 1.22539004 6 0.06532326152051912 -1.5667276604736968 3.5692346418266765
C 7.63682000 8.16212002 5.09850003 6 2.2374756052033358 3.992253146701198 2.301319284744824
C 8.36059005 9.09906998 9.08596004 6 2.0135290185356665 1.005799978158458 0.6566458879180269
C 2.33883003 6.67221005 8.16328000 6 -0.9355164913380594 -3.7698653410479337 1.1075542816715298
C 8.70568005 1.06089999 8.98871005 6 -4.723334299443349 -2.5488286129951354 0.4398971564392756
C 5.05850005 5.63431999 7.25546996 6 1.491318350370364 -6.972456791361706 -2.4042847163637764
C 9.45563005 2.19541999 2.41328997 6 1.5839472793141187 12.267383386084896 -17.612081946025544
C 4.33207004 1.81955001 5.24524001 6 -10.922116799694699 -9.219618850014832 5.404221263539201
C 1.53932998 0.94142997 3.95126996 6 4.639236752303606 3.540990414406314 -1.4881807314429856
C 3.26952999 4.64381995 8.86326003 6 0.03585762040526752 1.99262921594761 3.6638841747313666
C 6.62840005 8.34433004 0.92728999 6 -4.385438300653376 -5.269700159118247 -1.216846379090287
C 5.98071005 1.99871004 0.83777997 6 -8.770192609637613 5.241062507918268 3.8954060977046066
C 9.57726002 7.31342996 9.07082002 6 0.0716596986298832 -1.6030121328228628 5.590820876513013
C 3.09225998 3.21968996 7.60126002 6 2.995933910212339 -0.1598791955652224 1.1980396938656839
C 2.01768997 9.48893003 0.57246002 6 -1.4707374010416048 -0.6184858384129605 6.129586714468718
C 1.72058998 5.02856000 4.46059001 6 0.5615777315406455 2.801367079991691 5.795652724565241
C 3.81171998 2.02810003 0.34661996 6 2.7929879249050202 -4.387507246882657 -2.187312787603517
C 5.21693000 8.32757001 6.44741999 6 -11.064526950886018 -8.028057020107394 4.9716217325022365
C 5.61488997 4.16691001 2.51255000 6 -14.048641176487973 -7.185571109963914 1.4998517892921788
C 4.21595001 9.10008999 5.97298001 6 -2.9078213834026996 0.1372709566426711 -1.1104069897833424
C 5.33242998 1.96714999 4.50858002 6 7.628095720115692 2.9764735758061756 -6.803605476503408
C 4.55660001 5.25541004 1.04071998 6 3.0743460980270245 -9.57963503652885 6.948404970021657
C 0.05692003 8.34300001 2.82141004 6 -2.8486159902250905 -2.2339563909237015 -8.156620197094538
C 0.49836996 3.81253003 1.55521999 6 -3.0530528716593506 -2.6780598389884527 -3.6748228986430758
C 7.06807997 8.95369001 9.00917001 6 -2.857729022087596 -1.7321384458082822 -1.9549016754603972
C 1.92452002 2.91340998 3.31765004 6 2.374554221331527 4.0462869457247805 6.5749172333023145
C 9.09340001 1.18459003 2.81764002 6 -16.629395229210008 -10.806924374140586 -6.058454152275576
C 3.56944997 1.94429997 8.10263998 6 -5.278558622652764 2.1083750061904407 -1.3390669476146608
C 7.33016001 6.35436996 6.13401999 6 -4.849303450882272 3.4085228278311264 -10.986480930040074
C 1.75208997 5.34324000 2.21888996 6 6.640481691885108 0.8235753404698796 -4.7328988686633755
C 7.50947996 2.00146004 8.70068999 6 -0.047569306331048555 -2.684520731724833 -2.923681761655503
C 6.81973001 6.28070001 7.24760998 6 -4.1815948977049695 4.636314616465979 6.566166254172947
C 2.11616000 0.39313997 7.78069999 6 -11.976354187896616 12.79098723728155 10.750074380846176
C 1.07691003 8.31535997 6.84641000 6 7.163434979576905 -8.825545535451676 -1.817680089644972
C 2.75829996 7.42795004 0.01105999 6 -2.1087149449072076 -4.001601718552024 -2.285455820815318
C 2.97004005 2.11155998 5.48473996 6 -1.1857031584075697 -12.242632658971646 -1.1184112351506132
C 0.91970996 2.65328002 7.17853996 6 0.06921069988669744 2.1843783090590776 -10.140471177101904
C 7.35694999 3.19360997 4.93174005 6 -10.532827312579908 -6.838572364900445 12.991788163000916
C 8.85065996 4.89109997 2.68930002 6 8.612878639971383 2.415276411058885 3.7129942622960534
C 1.87168002 1.99612998 2.44376996 6 13.099502451065602 -5.905609271034019 13.267826115207704
C 9.42151000 3.53654003 0.44201001 6 1.0695978868288534 0.7640634367397846 3.4135391095911087
C 2.21279997 9.02378003 3.94840003 6 -0.9448126066849357 3.815526156338251 1.2048369253626783
C 6.71305999 4.14464997 9.01742996 6 -3.1325712745720184 -10.932973753173783 14.546251801419016
C 5.94552005 8.86391999 5.67044999 6 1.1498321667365896 5.484370173058158 -10.893320236144522
C 6.37466999 2.20940997 6.09601000 6 -1.049081736710855 -0.39676453892751806 2.912982691967717
C 7.41127002 1.50574003 4.08394999 6 -0.9940605211423511 -1.2106071407970638 1.1086142116189692
C 8.39062004 7.22384002 8.49461997 6 -4.017799464124342 0.6848592585713598 1.6417656608137832
C 3.53093002 6.60145997 2.64300001 6 -0.9613991475218169 -0.8602897504396468 -3.4241579516846197
C 4.41539002 2.85629001 3.54629996 6 -3.982677777612711 0.10085534303363279 -7.30436503450974
C 4.79963996 3.14644004 6.50221999 6 -1.6175636698741946 27.725107571693684 4.030594736852284
C 1.58516004 5.85971005 3.40783998 6 1.2063417070347826 7.5929457482342855 7.292594720726604
C 8.40029003 2.11158003 6.26214000 6 -3.1060735401654873 0.29451806998033686 5.274877924625679
C 4.88533997 0.31040003 9.27057998 6 -1.6553688665584296 -6.435593787372777 -2.1817349126836105
C 5.90931004 2.16272001 8.05136996 6 -12.40462297168109 3.0776920001318473 4.827022293690225
C 9.57370999 2.06529997 0.30592002 6 -9.126029761337032 3.586024837325947 -0.14457835335454144
C 6.70584001 9.00654003 7.39562004 6 -4.756905433411783 -11.954257142747842 18.829809285814502
C 5.64863002 8.44628002 4.13159999 6 3.4198925179223383 -2.3777437824834045 6.2628745767674205
C 4.66086003 0.50702997 1.98545001 6 7.589675445208683 0.685033085025622 0.7194306660709768
C 0.27340002 5.95598997 7.40174000 6 4.064500666742981 -2.041962500793805 5.362037491613579
C 5.90012002 3.54061004 4.95700999 6 -1.8341447462520892 -1.7308224046945038 -6.770522908012931
C 2.98485000 0.65409001 3.51050997 6 -4.166920447864973 1.1317444441837576 3.288691601633683
C 3.02074998 6.66396996 4.03639002 6 -1.2511508755551048 -1.7299028730370456 -8.408425815874159
C 6.85091998 7.53307997 4.24280005 6 13.518915856992258 -12.477155402538436 27.61833492930283
C 2.18058999 9.25877000 6.90317001 6 -6.890802071611744 -8.504229391865726 -9.602839325334509
C 7.04627002 2.73891997 2.75317996 6 2.434154066847655 -7.182346577809405 -3.918405703288973
C 6.36177002 0.88383002 0.48563001 6 6.713178177887158 -11.514424271239877 3.974097024981452
C 8.04116003 2.18953004 0.26053002 6 0.02766463447967064 -0.13719741468125246 6.910259320341203
C 3.20847998 3.25818996 2.77368002 6 0.9167658625735585 -4.48137816069932 -0.518084089854651
C 4.94204002 7.70453001 8.48749002 6 6.038072743373602 3.6041588450293225 -2.0712538011753434
C 3.33933997 8.32291003 8.92803003 6 3.5500653895894843 2.9135941702343375 1.0725837933183404
C 3.82658999 8.50940996 2.89439997 6 -10.905273119132579 -1.1009370479822036 1.2378377234205293
C 1.24895004 7.51838001 5.13803999 6 -3.7001516758586663 -1.3582048288053732 -1.1238728829147109
C 0.38632004 9.02133002 3.81743998 6 3.0489880068827566 7.643038109549388 3.379588437388221
C 2.47963003 1.57995000 7.11214004 6 2.864141572555631 -3.587425220269604 -0.21841036838325217
C 0.11842997 1.62275002 6.89790001 6 -0.021311740427891197 2.7716885271839407 -17.119511773988656
C 0.19651995 6.58049998 5.53897998 6 9.758921081437387 2.9192162731869846 -8.703170683092159
C 4.12913003 6.01402005 4.35511998 6 5.165270059624327 -8.286171304906054 -0.3842660054425026
C 7.59419004 3.87460998 2.37463998 6 5.032447620228308 0.3629491222201066 4.023438538298855
C 8.54606004 1.53005002 4.97818997 6 -6.8041506127209175 -3.233793298853844 -3.712236214386046
C 0.00279001 8.45103004 7.33126003 6 -6.088152247702444 2.7331417395321136 5.0297486816721895
C 3.00135004 7.59272996 1.49250998 6 3.8617423934350867 -9.348830019109581 2.1609647085170747
C 1.42982001 8.27752003 0.70100997 6 -6.762779916606505 11.7581418171018 -4.243003464048435
C 6.77931001 5.28432005 3.63663999 6 6.901497541343376 1.1141355157993225 1.8997390330430113
C 0.92065998 5.53560000 5.71258996 6 11.778550997094097 -0.007620078617762161 -12.745016311482592
C 1.11894000 2.40265000 1.69520002 6 -14.094083423011838 1.8373409930368225 -10.427483852781936
C 0.26005998 0.45109004 0.21277995 6 -0.6408760228485082 4.612352794029765 5.969197353688618
C 2.46822002 3.77621003 6.53299004 6 -4.807303276720471 2.5697402440105535 -3.2232263989848313
C 0.91786004 8.93792000 8.15348999 6 -1.7523547710066507 4.145931160652532 -1.5515055030189393
C 1.07902004 4.04926002 3.94779001 6 0.6088117276699812 -7.2478827510224235 -6.219593332494474
C 6.31425998 5.04077997 0.26467995 6 1.0408794937551493 7.781592707700458 -3.242305138038738
C 2.04538004 4.38033999 0.14436999 6 -4.038085731327976 2.4253850879375203 -14.443473567520039
C 6.15011004 6.92742997 0.60206999 6 2.293937317512634 11.025097145417716 9.232160582973687
C 3.07538003 8.66194996 7.48237003 6 10.351688833090744 -9.934174661174708 -1.7767506452990707
C 8.49423003 5.08338998 8.94030996 6 -2.5911471261367836 3.0658867153460787 0.7761731749602371
C 5.71977003 6.56449004 4.98695997 6 5.8478356318465465 -3.339628924085925 1.7379636891438692
C 7.12449998 1.12297001 6.42403004 6 1.5454195200019591 5.060838417292056 1.5982303624922998
C 4.63866997 5.63336004 8.45031996 6 1.637045089737827 0.16634574537555794 8.869239231843908
C 3.22499997 4.77773998 2.81707001 6 -5.720691866142727 0.35773124291553654 0.44695924185326696
C 6.69314999 9.60640004 3.52691004 6 -4.316895135493401 2.09838872782102 4.647978474402866
C 0.75650001 6.69671997 1.68376002 6 3.0642507924141023 -3.1655201304053713 -1.3477747272701883
C 6.41303001 7.46088996 7.92558996 6 -3.5941828522489114 2.1470143641433546 -1.4424638596925659
C 3.93002000 2.93511004 1.30495996 6 -1.267797587087692 5.335090276967328 4.869253379325292
C 0.73529998 8.80115001 5.59454000 6 2.9197002101498866 -1.478434621576939 -4.99710376499407
C 7.01357004 2.71362004 1.18583996 6 3.8182374376011814 0.9663480586737858 -3.4885683671805365
C 6.79908997 0.82697997 8.74893999 6 3.4385253766926795 2.667789678362367 3.2632975109278815
C 0.38628997 4.88901002 6.56425000 6 2.658790816537868 -10.217882062826506 8.699664840078237
C 5.82316004 9.04000003 0.01563003 6 -1.838018813352555 -5.665546194947207 4.500997921735133
C 6.91708999 2.92942002 7.93605005 6 4.6936511181205445 0.41652984104781593 -4.910362307199411
C 8.06021004 6.82230997 2.18511000 6 -3.2639881882298756 1.9779527089898117 3.3118202913601196
C 0.25006001 0.74365999 3.50953999 6 13.2662663056344 -12.13121915881966 8.309199710139646
C 8.54774000 8.19461997 6.20890004 6 -4.7520490925609 -1.3040866879519124 -5.567508589022754
C 4.06832999 4.42661996 7.05911004 6 3.6331600918007902 -1.5825036968966215 1.6946613594134532
C 1.97790997 2.47082996 9.28651000 6 2.2414628137829076 -3.0271532442537277 -6.0024671198990704
C 2.61460998 4.78321001 7.70951997 6 -5.513201707610968 1.588262083903646 3.2317130384766517
C 5.07220005 1.64549997 9.22375998 6 0.7035533165963078 9.200162115564822 7.951710178565837
C 1.18903003 4.45803001 8.01755000 6 4.7515085848584455 4.122669272548421 -12.821368295818656
C 9.50569999 3.80701999 5.66022001 6 0.2015147455966327 -4.6698821504782595 1.9561709171441817
C 3.71064001 3.67805002 0.01902996 6 1.1653155781521911 -7.50729096291849 2.2030600243772143
C 5.25195004 4.31709996 8.97748001 6 -8.86485962804362 11.604172206702042 6.3896285186477755
C 6.32263002 6.13588996 9.32300998 6 0.8375344275942582 5.965884365468627 -6.164093837037024
C 9.21351997 7.18831002 3.69127997 6 4.715687992573613 0.5095017943850408 -3.2831749259683836
C 9.11712003 1.15217000 7.77696998 6 -4.550273093003423 -7.487763772183764 4.80516027425032
C 2.92328001 7.39065003 5.13364000 6 -11.48971005796761 -18.029550861349936 1.5875276928483604
C 3.29059004 4.56302999 4.07512995 6 -3.218951193912991 -0.5576563507307355 4.743436968883162
C 5.23829005 2.57797002 2.12642999 6 -2.718930655476999 1.7288187719554338 -1.2311587761971454
C 1.11835004 2.07993004 8.25722000 6 6.419222729625647 6.116528644941579 9.955664856571918
C 2.91259000 1.12245996 9.31622997 6 6.987452665858251 25.703026600175985 0.228365789985644
C 1.86204001 1.24348001 5.70148997 6 6.600769546998493 0.1336792289605188 -2.745592445028234
C 5.54073996 5.55113999 3.75306002 6 -10.929442710466788 3.352216942195324 9.090552193445669
C 2.30353004 4.33836005 1.26747997 6 -0.1400691511327328 1.292575056732368 11.64870932139306
C 0.56742002 1.17122001 5.50295997 6 -5.579465586246414 2.172033545129756 4.169588015374613
C 6.99160999 9.38441002 6.32516997 6 3.38331644912475 5.130642595664608 -12.518680382487993
C 9.27120002 2.84313998 8.38395001 6 -0.5598677523677996 5.658325711462468 -1.971556615464192
C 2.82778999 5.17998002 6.02207997 6 -5.814178098930432 -0.8957421186379361 7.199678309570031
C 0.48112996 6.07360998 9.63427000 6 16.28233425633303 1.2198852563631735 -4.01428333552141
C 8.17442000 3.86977001 9.35525997 6 8.900555250421986 -4.932822433640224 4.101116849337705
C 5.69647995 0.68568004 4.93885004 6 -1.0923902377946766 -1.4205997831348591 4.380988240568372
C 7.23013003 4.40615999 8.03575998 6 11.30636943387149 5.5305504105934595 -19.794533249983672
C 3.82857997 9.45275000 8.38961998 6 3.558542772051197 -0.8899667604090458 3.6793799288537796
C 8.56327999 3.52912001 6.82899001 6 10.753351883784083 -20.822358274167836 -2.9226398314888304
C 3.88175004 4.96906001 5.38205002 6 6.156834268314049 3.872650774859218 -4.957937784883865
C 8.89100004 6.68648999 7.36072001 6 -5.6026163899892225 0.8745162628782751 3.1016157658887265
C 4.35571005 6.45684002 6.64001000 6 -5.135244368187503 8.674966055189483 1.175963219894929
C 4.03304002 3.57527003 5.50690997 6 11.247124441176194 8.150412329847795 0.7694140001425784
C 4.19960999 4.69989996 2.09567999 6 10.79340705306417 -1.6772663712804177 3.3720347008195706
C 2.88954999 0.23275001 2.18384003 6 0.19445266018264135 2.48955173497391 0.7079308632787935
C 5.28500998 4.26891002 0.64669997 6 -1.4307069171751428 -3.265669367753495 -0.5891312816590125
C 6.31454003 4.93098996 7.25926996 6 -3.8777133417697436 3.3591268008919735 -10.2779838450863
C 9.46060998 6.71879001 0.75707002 6 -9.743780180135806 5.144323971885727 4.06304371305977
C 1.56488999 2.93808996 5.85580999 6 -3.9447033829892675 6.888722839793453 2.9259872764320045
C 5.38645001 3.54016997 8.17608001 6 0.07524731207643168 -17.23481168394792 -15.91361697579634
C 4.84900001 2.04232001 6.48128998 6 5.148017012619624 -26.394221267297805 2.1973906077151226
C 3.52835999 0.33400003 6.73375999 6 8.98736510738356 3.0037535292568873 1.0530843736739408
216
energy=-1452.9033451529688 config_type=Liquid dft_virial = "0.8621738192963186 0.029843003772307992 -0.014952341018006136 0.029843003772307992 0.685826630060637 0.03440386618746038 -0.014952341018006136 0.03440386618746038 0.7540287942018024" Lattice="10.71000000 0.00000000 0.00000000 0.00000000 10.71000000 0.00000000 0.00000000 0.00000000 10.71000000" Properties=species:S:1:pos:R:3:Z:I:1:force:R:3
C 5.81699995 5.72799995 2.39799995 6 0.894564418696337 -0.2496646734272732 3.234819286357551
C 0.54799996 4.88799998 5.47200000 6 4.1290406806604185 -1.9045156605790696 -2.137499680030024
C 4.32500002 8.05999996 8.21300002 6 -0.896965589450628 4.664100106616513 -1.4246636193525521
C 0.14000005 2.28800001 10.01400005 6 -7.45975199907502 -5.347475154693788 -0.5402845051729717
C 6.41100000 10.64400005 9.73299996 6 1.1218173079511422 4.247799634203611 4.178077226263686
C 9.75100004 3.42499995 4.34799996 6 6.170476559296931 1.082323731830981 -2.206314384739852
C 7.75600004 0.30999999 1.44900003 6 0.18200864031937677 -8.148837091890973 8.287435918074785
C 5.97199999 4.19200003 0.30500002 6 -0.6077980828730851 -0.3170635668099296 0.7240627810814502
C 8.86299999 9.05399999 1.62500003 6 -5.798622688391764 -3.0849489974575706 -1.5270335153678485
C 6.24800001 9.21000003 4.57300003 6 -0.9362025401249997 -3.013111872417272 0.4395520749280035
C 3.41999999 0.70999996 6.54300000 6 -9.844622666183175 1.2935552733649829 -10.238811179343239
C 0.24800001 0.22599996 5.31299999 6 -3.404261508304449 3.0988988275518405 5.1940846229552715
C 6.50399997 0.78099998 6.16200000 6 2.7717538406741515 3.362367275709448 0.00108050112545848
C 10.10500003 0.23699998 7.88199997 6 -1.6460017806473872 -10.963604237244372 -2.1833883211169036
C 5.63599998 3.96599997 5.97900005 6 7.924537195240825 -1.5466692190666254 4.357891436167865
C 6.91399997 1.82599995 1.25700003 6 -2.623075651540384 2.819395660407718 -2.5717258769688565
C 2.48399997 1.85800004 10.05000000 6 -8.58777151719895 0.8825745075878463 12.881798188367858
C 4.90199999 6.91900004 5.25200000 6 -3.0169082833207153 5.125377916930044 1.979006467583845
C 3.88899999 3.81200002 1.35199998 6 -0.04792107347517688 1.7159149862634402 0.2987886465371228
C 2.75999999 1.96300002 8.86699996 6 -5.88831765307053 -0.7583703632229709 -16.85881889202529
C 4.98300004 7.17400000 8.85299995 6 -2.613152115263922 -0.2034381507414279 7.65435328601885
C 1.81200005 1.55500000 2.66600003 6 0.10848365012260262 1.1352564585510856 -1.205033894392212
C 1.63700005 7.49100004 10.68800005 6 -23.635367612359495 1.2961570131049613 5.433917816127718
C 2.48499996 4.04900000 7.34300005 6 -0.07116290468071952 1.8468474486789455 -0.7471189574053695
C 5.78399997 7.71400002 0.61699999 6 4.845952920262395 -5.741852408412178 -0.5049905350454302
C 0.36999998 3.63600002 7.57800005 6 -0.45129410334136294 5.120553461405091 17.23162777987
C 7.40500003 4.88200003 6.24500004 6 -13.083073794020018 3.295314492396964 0.30710865948698823
C 0.00199999 1.47700004 8.93100003 6 0.21566411611768896 1.5247845713308996 5.059734773591326
C 3.67399995 7.37700002 0.96800000 6 -4.522453146129708 -8.682071340077314 3.651265299854939
C 5.73500001 2.50200005 7.83000003 6 -4.879888678361218 2.1178331195642186 -3.404516076632437
C 5.80600003 6.39000005 8.36799996 6 8.561132355943537 -8.150038962966745 -5.161119310179503
C 0.59299996 6.39999998 0.56399995 6 0.00125124190301784 3.206648600898608 -0.3797434319549815
C 2.98499995 5.37399997 8.40200003 6 -2.0996949976252393 4.059188160019522 2.172749422124824
C 9.50400002 1.43800000 5.74700003 6 -3.1754323525339228 -5.568390578280328 -6.369991786390098
C 8.71400001 10.65599997 8.62899998 6 0.948886214212188 0.5573642400028629 4.621069316435951
C 9.82099996 3.75100004 9.34200003 6 -3.588098926349733 -2.3294925416010197 -0.8144628228868245
C 7.39300001 5.62099999 8.62300003 6 2.328986490621747 -3.5757690765244754 -2.6787196595234186
C 9.66999999 9.46000002 10.68299998 6 6.155242059135362 -4.874964966902322 1.4502397649838237
C 7.54399998 7.64100002 3.47000005 6 -0.18653018524799694 5.609518534494114 -3.2355403061471244
C 2.48299997 2.93400000 6.47099999 6 1.949827280122511 -0.5452771300782314 1.64613395046616
C 10.59200000 3.61599995 0.77800000 6 -0.8053893905420059 2.6096709576636226 7.251098540426273
C 3.75500001 2.53999999 9.16500003 6 14.349393341967028 7.8033950707241075 -1.658071405070702
C 7.03900002 5.30199996 0.25299997 6 -0.7790181688802924 2.2125068236030816 2.42469955343003
C 4.13700000 2.27999996 5.23300003 6 10.793660078553804 0.27927534134756016 0.3406484224089424
C 8.87600000 3.82200005 2.40500001 6 17.08533790450426 2.3413723969071074 -7.607642826370102
C 6.84800003 1.92100001 7.47099998 6 8.29232877276665 -2.7269297580497653 -2.129099953765334
C 6.88699995 10.60500002 0.46700002 6 -5.23401482232889 -7.2980877395371815 -1.4461743859277791
C 2.36100001 6.91000000 2.00600003 6 4.100317659071659 -1.794089576972004 -14.753579447644425
C 4.98500002 5.90800003 4.18100000 6 -1.0069889922479678 -2.6366408006056945 11.744029474701177
C 9.24899996 2.65699999 2.96400000 6 4.723130644780959 -5.019745432080902 0.766096383407532
C 0.96400003 10.63300003 0.97600005 6 2.942495132512962 -1.734698014633321 -2.454736559014765
C 4.91300001 5.10799998 0.51300000 6 -3.241686974139261 -4.377472626244891 -4.840018649683305
C 3.81000003 6.14000005 10.66500001 6 1.0018960828498644 -5.729937067824006 5.292728564351839
C 2.64499997 0.48699998 4.18299999 6 2.11642039391375 -0.17181922156701654 3.4274405974170334
C 6.75199998 1.55699999 4.39299995 6 -4.127275673586371 -0.839663030239795 1.9249119835851063
C 10.53899996 6.10799997 5.47399999 6 0.008722693759591279 1.2781490038669534 7.211680049105883
C 7.90800000 6.83200004 4.41799999 6 4.737954749941045 -5.294137690046155 2.656934782001086
C 0.93999999 10.36299996 9.34699999 6 8.214163953367645 5.876199172099419 11.066477098562238
C 0.02900000 2.50500003 3.66500002 6 -2.050406969370686 0.0727345426813864 2.207575912231879
C 7.45100001 3.15699998 9.99699996 6 -0.3402436844814146 0.1291890550783779 0.14887772956055423
C 1.07000001 4.90299998 7.41199998 6 0.7286702106783005 2.581552214429178 -1.9088448649932102
C 8.62700000 3.50500001 8.48900004 6 3.204708738811398 -0.68694877597866 -5.084792011257064
C 7.95399998 1.22399995 0.61400002 6 -3.5952849531112903 9.054204979003543 -1.8249525153542099
C 9.99299999 1.52600000 7.80100003 6 6.667522505391347 5.315120291625739 -4.206676820784329
C 5.91499998 9.40999996 1.24700000 6 5.85317539538088 4.177025524787454 0.740173613426637
C 2.23599996 0.16399998 6.94700005 6 -3.910598941230687 -3.200827986078076 3.1690789442026928
C 9.48900002 5.83099995 6.76499999 6 -11.355155011102923 2.551427267058411 -7.2877296371250635
C 10.61399995 6.09199997 9.97200003 6 -0.16557329764093695 1.1777081700704075 -0.3797100037907003
C 9.65200001 8.37500002 8.06800001 6 -5.66257005976728 7.0931504641976035 -10.608209365872366
C 9.14900004 4.04500003 0.81299996 6 3.4569792662142533 0.7544129828515274 5.545579713254287
C 3.47000005 2.03200005 0.31099998 6 0.9661773178962264 3.57779893751552 8.407451256315499
C 7.61200002 4.73999999 9.86299997 6 2.510236568751666 -6.169647026543307 -2.135156108574187
C 4.24299998 5.89300004 9.20299997 6 -1.0594578389037392 -0.05295844069262848 2.0546626318234087
C 6.99700001 7.30799999 6.13599998 6 2.6712338078422317 -0.792552975458025 5.479865085071953
C 0.75199997 1.53600003 4.81399999 6 -2.600248329571928 -0.2147013849863904 -1.341638344867061
C 0.00000000 7.69299996 1.43400003 6 0.9487283304208906 -6.684833665973954 -1.509152018874659
C 10.63600000 0.69299997 2.82099997 6 -2.8408164280791106 0.14422350053371025 -0.43793209465899163
C 9.59000004 1.71799999 1.17799997 6 -22.110141789260084 -10.040436109791788 7.67048931805711
C 3.95099997 8.46000004 4.73300004 6 5.919160534554167 1.1408898756516435 24.837993136085107
C 9.34100003 10.60999998 2.28600002 6 2.104968419110461 11.828746214299297 -11.73989723931657
C 3.28700000 8.19700003 7.55400001 6 -9.704587971773625 -3.548282897014121 -6.6190722383616265
C 6.35100001 2.69800001 0.36899998 6 -3.0388289306179748 7.316411516357783 -4.904517521244705
C 3.64299997 8.37500002 3.60700002 6 -0.10415136003175912 3.664243656067252 -20.56063580474461
C 1.47800003 2.88500004 3.35400004 6 -7.298371107514396 -1.859783633976319 -5.37732804823525
C 8.89799995 8.22299995 6.74900000 6 1.9797331444473734 -5.2519528895616325 2.9742693740814183
C 4.19899998 4.86900001 2.45699995 6 3.717483407619293 -2.2031397376920387 0.5137173430406253
C 7.52999997 2.64599996 4.08800004 6 5.99099200252051 5.933195735037216 0.40181939164628605
C 1.79900004 2.03200005 0.75700004 6 11.63258563206161 9.7760234445631 -5.733001144789966
C 8.65799999 10.26700002 6.79100001 6 3.8117487737744753 3.384056497253991 -2.2304659762932935
C 1.15400004 3.04099997 10.07800001 6 9.258104952691504 3.2268525833901656 -1.568491124709393